 vasp.5.4.4.18Apr17-6-g9f103f2a35 (build Nov 28 2017 01:56:59) complex          
  
 executed on           IFC91_ompi date 2019.03.14  10:03:20
 running on   27 total cores
 distrk:  each k-point on    3 cores,    9 groups
 distr:  one band on NCORES_PER_BAND=   1 cores,    3 groups


--------------------------------------------------------------------------------------------------------


 INCAR:
 POTCAR:    PAW_PBE Mo 08Apr2002                  
 POTCAR:    PAW_PBE W 08Apr2002                   
 POTCAR:    PAW_PBE S 06Sep2000                   

 ----------------------------------------------------------------------------- 
|                                                                             |
|           W    W    AA    RRRRR   N    N  II  N    N   GGGG   !!!           |
|           W    W   A  A   R    R  NN   N  II  NN   N  G    G  !!!           |
|           W    W  A    A  R    R  N N  N  II  N N  N  G       !!!           |
|           W WW W  AAAAAA  RRRRR   N  N N  II  N  N N  G  GGG   !            |
|           WW  WW  A    A  R   R   N   NN  II  N   NN  G    G                |
|           W    W  A    A  R    R  N    N  II  N    N   GGGG   !!!           |
|                                                                             |
|      For optimal performance we recommend to set                            |
|        NCORE= 4 - approx SQRT( number of cores)                             |
|      NCORE specifies how many cores store one orbital (NPAR=cpu/NCORE).     |
|      This setting can  greatly improve the performance of VASP for DFT.     |
|      The default,   NCORE=1            might be grossly inefficient         |
|      on modern multi-core architectures or massively parallel machines.     |
|      Do your own testing !!!!                                               |
|      Unfortunately you need to use the default for GW and RPA calculations. |
|      (for HF NCORE is supported but not extensively tested yet)             |
|                                                                             |
 ----------------------------------------------------------------------------- 


 ----------------------------------------------------------------------------- 
|                                                                             |
|           W    W    AA    RRRRR   N    N  II  N    N   GGGG   !!!           |
|           W    W   A  A   R    R  NN   N  II  NN   N  G    G  !!!           |
|           W    W  A    A  R    R  N N  N  II  N N  N  G       !!!           |
|           W WW W  AAAAAA  RRRRR   N  N N  II  N  N N  G  GGG   !            |
|           WW  WW  A    A  R   R   N   NN  II  N   NN  G    G                |
|           W    W  A    A  R    R  N    N  II  N    N   GGGG   !!!           |
|                                                                             |
|      You have enabled k-point parallelism (KPAR>1).                         |
|      This developmental code was originally  written by Paul Kent at ORNL,  |
|      and carefully double checked in Vienna.                                |
|      GW as well as linear response parallelism added by Martijn Marsman     |
|      and Georg Kresse.                                                      |
|      Carefully verify results versus KPAR=1.                                |
|      Report problems to Paul Kent and Vienna.                               |
|                                                                             |
 ----------------------------------------------------------------------------- 

 POTCAR:    PAW_PBE Mo 08Apr2002                  
   VRHFIN =Mo: 4p5s4d                                                           
   LEXCH  = PE                                                                  
   EATOM  =   217.5176 eV,   15.9871 Ry                                         
                                                                                
   TITEL  = PAW_PBE Mo 08Apr2002                                                
   LULTRA =        F    use ultrasoft PP ?                                      
   IUNSCR =        1    unscreen: 0-lin 1-nonlin 2-no                           
   RPACOR =    2.200    partial core radius                                     
   POMASS =   95.940; ZVAL   =    6.000    mass and valenz                      
   RCORE  =    2.750    outmost cutoff radius                                   
   RWIGS  =    2.750; RWIGS  =    1.455    wigner-seitz radius (au A)           
   ENMAX  =  224.584; ENMIN  =  168.438 eV                                      
   RCLOC  =    2.111    cutoff for local pot                                    
   LCOR   =        T    correct aug charges                                     
   LPAW   =        T    paw PP                                                  
   EAUG   =  345.278                                                            
   DEXC   =    0.000                                                            
   RMAX   =    2.821    core radius for proj-oper                               
   RAUG   =    1.300    factor for augmentation sphere                          
   RDEP   =    2.815    radius for radial grids                                 
   RDEPT  =    2.211    core radius for aug-charge                              
                                                                                
   Atomic configuration                                                         
   12 entries                                                                   
     n  l   j            E        occ.                                          
     1  0  0.50    -19819.0341   2.0000                                         
     2  0  0.50     -2799.0127   2.0000                                         
     2  1  1.50     -2502.0276   6.0000                                         
     3  0  0.50      -476.4448   2.0000                                         
     3  1  1.50      -379.1496   6.0000                                         
     3  2  2.50      -220.9367  10.0000                                         
     4  0  0.50       -64.3378   2.0000                                         
     4  1  1.50       -38.4773   6.0000                                         
     4  2  2.50        -3.7535   5.0000                                         
     5  0  0.50        -4.0862   1.0000                                         
     5  1  0.50        -2.7701   0.0000                                         
     4  3  2.50        -1.3606   0.0000                                         
   Description                                                                  
     l       E           TYP  RCUT    TYP  RCUT                                 
     2     -3.7534765     23  2.500                                             
     2     -5.1140591     23  2.500                                             
     0     -4.0861560     23  2.600                                             
     0     13.6058260     23  2.600                                             
     1      5.4423304     23  2.750                                             
     1     27.2116520     23  2.750                                             
  local pseudopotential read in
  partial core-charges read in
  partial kinetic energy density read in
  atomic valenz-charges read in
  non local Contribution for L=           2  read in
    real space projection operators read in
  non local Contribution for L=           2  read in
    real space projection operators read in
  non local Contribution for L=           0  read in
    real space projection operators read in
  non local Contribution for L=           0  read in
    real space projection operators read in
  non local Contribution for L=           1  read in
    real space projection operators read in
  non local Contribution for L=           1  read in
    real space projection operators read in
    PAW grid and wavefunctions read in
 
   number of l-projection  operators is LMAX  =           6
   number of lm-projection operators is LMMAX =          18
 
 POTCAR:    PAW_PBE W 08Apr2002                   
   VRHFIN =W : 6s5d                                                             
   LEXCH  = PE                                                                  
   EATOM  =   204.6103 eV,   15.0384 Ry                                         
                                                                                
   TITEL  = PAW_PBE W 08Apr2002                                                 
   LULTRA =        F    use ultrasoft PP ?                                      
   IUNSCR =        1    unscreen: 0-lin 1-nonlin 2-no                           
   RPACOR =    2.330    partial core radius                                     
   POMASS =  183.850; ZVAL   =    6.000    mass and valenz                      
   RCORE  =    2.750    outmost cutoff radius                                   
   RWIGS  =    2.750; RWIGS  =    1.455    wigner-seitz radius (au A)           
   ENMAX  =  223.057; ENMIN  =  167.293 eV                                      
   RCLOC  =    2.147    cutoff for local pot                                    
   LCOR   =        T    correct aug charges                                     
   LPAW   =        T    paw PP                                                  
   EAUG   =  373.438                                                            
   DEXC   =    0.000                                                            
   RMAX   =    2.801    core radius for proj-oper                               
   RAUG   =    1.300    factor for augmentation sphere                          
   RDEP   =    2.886    radius for radial grids                                 
   RDEPT  =    2.230    core radius for aug-charge                              
                                                                                
   Atomic configuration                                                         
   16 entries                                                                   
     n  l   j            E        occ.                                          
     1  0  0.50    -69465.5836   2.0000                                         
     2  0  0.50    -11986.2642   2.0000                                         
     2  1  1.50    -10479.8616   6.0000                                         
     3  0  0.50     -2759.0758   2.0000                                         
     3  1  1.50     -2313.1857   6.0000                                         
     3  2  2.50     -1801.1185  10.0000                                         
     4  0  0.50      -567.6791   2.0000                                         
     4  1  1.50      -421.4694   6.0000                                         
     4  2  2.50      -236.3473  10.0000                                         
     4  3  3.50       -31.2666  14.0000                                         
     5  0  0.50       -77.1085   2.0000                                         
     5  1  1.50       -41.3856   6.0000                                         
     5  2  2.50        -3.3185   5.0000                                         
     6  0  0.50        -5.1438   1.0000                                         
     6  1  0.50        -3.8096   0.0000                                         
     5  3  2.50        -1.3606   0.0000                                         
   Description                                                                  
     l       E           TYP  RCUT    TYP  RCUT                                 
     2     -3.3185288     23  2.500                                             
     2     -1.5965414     23  2.500                                             
     0     -5.1438054     23  2.500                                             
     0      4.9117504     23  2.500                                             
     1      2.7211652     23  2.750                                             
     1     27.2116520     23  2.750                                             
  local pseudopotential read in
  partial core-charges read in
  partial kinetic energy density read in
  atomic valenz-charges read in
  non local Contribution for L=           2  read in
    real space projection operators read in
  non local Contribution for L=           2  read in
    real space projection operators read in
  non local Contribution for L=           0  read in
    real space projection operators read in
  non local Contribution for L=           0  read in
    real space projection operators read in
  non local Contribution for L=           1  read in
    real space projection operators read in
  non local Contribution for L=           1  read in
    real space projection operators read in
    PAW grid and wavefunctions read in
 
   number of l-projection  operators is LMAX  =           6
   number of lm-projection operators is LMMAX =          18
 
 POTCAR:    PAW_PBE S 06Sep2000                   
   VRHFIN =S : s2p4                                                             
   LEXCH  = PE                                                                  
   EATOM  =   276.8230 eV,   20.3459 Ry                                         
                                                                                
   TITEL  = PAW_PBE S 06Sep2000                                                 
   LULTRA =        F    use ultrasoft PP ?                                      
   IUNSCR =        1    unscreen: 0-lin 1-nonlin 2-no                           
   RPACOR =    1.500    partial core radius                                     
   POMASS =   32.066; ZVAL   =    6.000    mass and valenz                      
   RCORE  =    1.900    outmost cutoff radius                                   
   RWIGS  =    2.200; RWIGS  =    1.164    wigner-seitz radius (au A)           
   ENMAX  =  258.689; ENMIN  =  194.016 eV                                      
   ICORE  =        2    local potential                                         
   LCOR   =        T    correct aug charges                                     
   LPAW   =        T    paw PP                                                  
   EAUG   =  335.092                                                            
   DEXC   =    0.000                                                            
   RMAX   =    1.942    core radius for proj-oper                               
   RAUG   =    1.300    factor for augmentation sphere                          
   RDEP   =    1.954    radius for radial grids                                 
   RDEPT  =    1.744    core radius for aug-charge                              
                                                                                
   Atomic configuration                                                         
    6 entries                                                                   
     n  l   j            E        occ.                                          
     1  0  0.50     -2405.8406   2.0000                                         
     2  0  0.50      -211.7007   2.0000                                         
     2  1  1.50      -156.4958   6.0000                                         
     3  0  0.50       -17.2562   2.0000                                         
     3  1  0.50        -7.0085   4.0000                                         
     3  2  1.50        -6.8029   0.0000                                         
   Description                                                                  
     l       E           TYP  RCUT    TYP  RCUT                                 
     0    -17.2561641     23  1.900                                             
     0    -15.8743224     23  1.900                                             
     1     -7.0085400     23  1.900                                             
     1     -2.7779785     23  1.900                                             
     2     -6.8029130     23  1.900                                             
  local pseudopotential read in
  partial core-charges read in
  partial kinetic energy density read in
  atomic valenz-charges read in
  non local Contribution for L=           0  read in
    real space projection operators read in
  non local Contribution for L=           0  read in
    real space projection operators read in
  non local Contribution for L=           1  read in
    real space projection operators read in
  non local Contribution for L=           1  read in
    real space projection operators read in
    PAW grid and wavefunctions read in
 
   number of l-projection  operators is LMAX  =           4
   number of lm-projection operators is LMMAX =           8
 

 ----------------------------------------------------------------------------- 
|                                                                             |
|  ADVICE TO THIS USER RUNNING 'VASP/VAMP'   (HEAR YOUR MASTER'S VOICE ...):  |
|                                                                             |
|      You have a (more or less) 'large supercell' and for larger cells       |
|      it might be more efficient to use real space projection opertators     |
|      So try LREAL= Auto  in the INCAR   file.                               |
|      Mind:          For very  accurate calculation you might also keep the  |
|      reciprocal projection scheme          (i.e. LREAL=.FALSE.)             |
|                                                                             |
 ----------------------------------------------------------------------------- 

  PAW_PBE Mo 08Apr2002                  :
 energy of atom  1       EATOM= -217.5176
 kinetic energy error for atom=    0.0025 (will be added to EATOM!!)
  PAW_PBE W 08Apr2002                   :
 energy of atom  2       EATOM= -204.6103
 kinetic energy error for atom=    0.0024 (will be added to EATOM!!)
  PAW_PBE S 06Sep2000                   :
 energy of atom  3       EATOM= -276.8230
 kinetic energy error for atom=    0.0046 (will be added to EATOM!!)
 
 
 POSCAR: 11-Mar-2019 16:26:27                    
  positions in direct lattice
  No initial velocities read in
 exchange correlation table for  LEXCH =        8
   RHO(1)=    0.500       N(1)  =     2000
   RHO(2)=  100.500       N(2)  =     4000
 


--------------------------------------------------------------------------------------------------------


 ion  position               nearest neighbor table
   1  0.000  0.500  0.033-  51 2.41  52 2.41  29 2.42  30 2.42  29 2.42  30 2.42   6 3.19  20 3.19
                             6 3.19  20 3.19
   2  0.000  0.600  0.033-  31 2.41  32 2.41  31 2.41  32 2.41  53 2.41  54 2.41   7 3.19   7 3.19
                             6 3.19   6 3.19
   3  0.000  0.700  0.033-  55 2.41  56 2.41  33 2.41  34 2.41  33 2.41  34 2.41   8 3.19   8 3.19
                             7 3.19   7 3.19
   4  0.000  0.800  0.033-  57 2.41  58 2.41  35 2.41  36 2.41  35 2.41  36 2.41   8 3.19   8 3.19
                             9 3.19   9 3.19
   5  0.000  0.900  0.033-  59 2.41  60 2.41  37 2.41  38 2.41  37 2.41  38 2.41   9 3.19   9 3.19
                            10 3.19  10 3.19
   6  0.500  0.550  0.033-  31 2.41  32 2.41  51 2.41  52 2.41  51 2.41  52 2.41   1 3.19   1 3.19
                             2 3.19   2 3.19
   7  0.500  0.650  0.033-  53 2.41  54 2.41  53 2.41  54 2.41  33 2.41  34 2.41   2 3.19   2 3.19
                             3 3.19   3 3.19
   8  0.500  0.750  0.033-  55 2.41  56 2.41  55 2.41  56 2.41  35 2.41  36 2.41   3 3.19   4 3.19
                             3 3.19   4 3.19
   9  0.500  0.850  0.033-  57 2.41  58 2.41  57 2.41  58 2.41  37 2.41  38 2.41   5 3.19   5 3.19
                             4 3.19   4 3.19
  10  0.500  0.950  0.033-  59 2.41  59 2.41  60 2.41  60 2.41  39 2.42  40 2.42  11 3.19  11 3.19
                             5 3.19   5 3.19
  11  0.000  0.000  0.033-  39 2.42  39 2.42  40 2.42  40 2.42  41 2.42  42 2.42  10 3.19  16 3.19
                            10 3.19  16 3.19
  12  0.000  0.100  0.033-  43 2.42  44 2.42  21 2.42  22 2.42  21 2.42  22 2.42  17 3.19  17 3.19
                            16 3.19  16 3.19
  13  0.000  0.200  0.033-  45 2.42  46 2.42  23 2.42  24 2.42  23 2.42  24 2.42  18 3.19  18 3.19
                            17 3.19  17 3.19
  14  0.000  0.300  0.033-  25 2.42  26 2.42  25 2.42  26 2.42  47 2.42  48 2.42  18 3.19  18 3.19
                            19 3.19  19 3.19
  15  0.000  0.400  0.033-  49 2.42  50 2.42  27 2.42  28 2.42  27 2.42  28 2.42  19 3.19  19 3.19
                            20 3.19  20 3.19
  16  0.500  0.050  0.033-  41 2.42  42 2.42  41 2.42  42 2.42  21 2.42  22 2.42  11 3.19  11 3.19
                            12 3.19  12 3.19
  17  0.500  0.150  0.033-  23 2.42  24 2.42  43 2.42  44 2.42  43 2.42  44 2.42  12 3.19  12 3.19
                            13 3.19  13 3.19
  18  0.500  0.250  0.033-  45 2.42  46 2.42  45 2.42  46 2.42  25 2.42  26 2.42  13 3.19  14 3.19
                            13 3.19  14 3.19
  19  0.500  0.350  0.033-  47 2.42  48 2.42  47 2.42  48 2.42  27 2.42  28 2.42  15 3.19  15 3.19
                            14 3.19  14 3.19
  20  0.500  0.450  0.033-  29 2.42  30 2.42  49 2.42  50 2.42  49 2.42  50 2.42   1 3.19   1 3.19
                            15 3.19  15 3.19
  21  0.500  0.083  0.065-  12 2.42  12 2.42  16 2.42
  22  0.500  0.083  0.000-  12 2.42  12 2.42  16 2.42
  23  0.500  0.183  0.065-  17 2.42  13 2.42  13 2.42
  24  0.500  0.183  0.000-  17 2.42  13 2.42  13 2.42
  25  0.500  0.283  0.065-  18 2.42  14 2.42  14 2.42
  26  0.500  0.283  0.000-  18 2.42  14 2.42  14 2.42
  27  0.500  0.383  0.065-  19 2.42  15 2.42  15 2.42
  28  0.500  0.383  0.000-  19 2.42  15 2.42  15 2.42
  29  0.500  0.483  0.065-  20 2.42   1 2.42   1 2.42
  30  0.500  0.483  0.000-  20 2.42   1 2.42   1 2.42
  31  0.500  0.583  0.065-   2 2.41   2 2.41   6 2.41
  32  0.500  0.583  0.000-   2 2.41   2 2.41   6 2.41
  33  0.500  0.683  0.065-   7 2.41   3 2.41   3 2.41
  34  0.500  0.683  0.000-   7 2.41   3 2.41   3 2.41
  35  0.500  0.783  0.065-   8 2.41   4 2.41   4 2.41
  36  0.500  0.783  0.000-   8 2.41   4 2.41   4 2.41
  37  0.500  0.883  0.065-   9 2.41   5 2.41   5 2.41
  38  0.500  0.883  0.000-   9 2.41   5 2.41   5 2.41
  39  0.500  0.983  0.065-  10 2.42  11 2.42  11 2.42
  40  0.500  0.983  0.000-  10 2.42  11 2.42  11 2.42
  41  0.000  0.033  0.065-  11 2.42  16 2.42  16 2.42
  42  0.000  0.033  0.000-  11 2.42  16 2.42  16 2.42
  43  0.000  0.133  0.065-  12 2.42  17 2.42  17 2.42
  44  0.000  0.133  0.000-  12 2.42  17 2.42  17 2.42
  45  0.000  0.233  0.065-  13 2.42  18 2.42  18 2.42
  46  0.000  0.233  0.000-  13 2.42  18 2.42  18 2.42
  47  0.000  0.333  0.065-  19 2.42  19 2.42  14 2.42
  48  0.000  0.333  0.000-  19 2.42  19 2.42  14 2.42
  49  0.000  0.433  0.065-  15 2.42  20 2.42  20 2.42
  50  0.000  0.433  0.000-  15 2.42  20 2.42  20 2.42
  51  0.000  0.533  0.065-   1 2.41   6 2.41   6 2.41
  52  0.000  0.533  0.000-   1 2.41   6 2.41   6 2.41
  53  0.000  0.633  0.065-   2 2.41   7 2.41   7 2.41
  54  0.000  0.633  0.000-   2 2.41   7 2.41   7 2.41
  55  0.000  0.733  0.065-   3 2.41   8 2.41   8 2.41
  56  0.000  0.733  0.000-   3 2.41   8 2.41   8 2.41
  57  0.000  0.833  0.065-   9 2.41   9 2.41   4 2.41
  58  0.000  0.833  0.000-   9 2.41   9 2.41   4 2.41
  59  0.000  0.933  0.065-   5 2.41  10 2.41  10 2.41
  60  0.000  0.933  0.000-   5 2.41  10 2.41  10 2.41
 
  LATTYP: Found a simple orthorhombic cell.
 ALAT       =     3.1900000000
 B/A-ratio  =    15.0000000000
 C/A-ratio  =    17.3205080757
  
  Lattice vectors:
  
 A1 = (  -3.1900000000,   0.0000000000,   0.0000000000)
 A2 = (   0.0000000000,   0.0000000000, -47.8500000000)
 A3 = (   0.0000000000, -55.2524207614,   0.0000000000)


Analysis of symmetry for initial positions (statically):
=====================================================================
 Subroutine PRICEL returns:
 Original cell was already a primitive cell.
 

 Routine SETGRP: Setting up the symmetry group for a 
 simple orthorhombic supercell.


 Subroutine GETGRP returns: Found  4 space group operations
 (whereof  2 operations were pure point group operations)
 out of a pool of  8 trial point group operations.


The static configuration has the point symmetry C_1h.
 The point group associated with its full space group is C_2v.


Analysis of symmetry for dynamics (positions and initial velocities):
=====================================================================
 Subroutine PRICEL returns:
 Original cell was already a primitive cell.
 

 Routine SETGRP: Setting up the symmetry group for a 
 simple orthorhombic supercell.


 Subroutine GETGRP returns: Found  4 space group operations
 (whereof  2 operations were pure point group operations)
 out of a pool of  8 trial point group operations.


The dynamic configuration has the point symmetry C_1h.
 The point group associated with its full space group is C_2v.


Analysis of constrained symmetry for selective dynamics:
=====================================================================
 Subroutine PRICEL returns:
 Original cell was already a primitive cell.
 

 Routine SETGRP: Setting up the symmetry group for a 
 simple orthorhombic supercell.


 Subroutine GETGRP returns: Found  4 space group operations
 (whereof  2 operations were pure point group operations)
 out of a pool of  8 trial point group operations.


The constrained configuration has the point symmetry C_1h.
 The point group associated with its full space group is C_2v.


 Subroutine INISYM returns: Found  4 space group operations
 (whereof  2 operations are pure point group operations),
 and found     1 'primitive' translations

 
 
 KPOINTS: mos2 mono                               

Automatic generation of k-mesh.
Space group operators:
 irot       det(A)        alpha          n_x          n_y          n_z        tau_x        tau_y        tau_z
    1     1.000000     0.000000     1.000000     0.000000     0.000000     0.000000     0.000000     0.000000
    2    -1.000000   180.000000     1.000000     0.000000     0.000000     0.000000     0.000000     0.000000
    3     1.000000   180.000000     0.000000     1.000000     0.000000     0.000000     0.000000    -0.934502
    4    -1.000000   180.000000     0.000000     0.000000     1.000000     0.000000     0.000000    -0.934502
 
 Subroutine IBZKPT returns following result:
 ===========================================
 
 Found     10 irreducible k-points:
 
 Following reciprocal coordinates:
            Coordinates               Weight
  0.000000  0.000000  0.000000      1.000000
  0.111111  0.000000  0.000000      2.000000
  0.222222  0.000000  0.000000      2.000000
  0.333333  0.000000  0.000000      2.000000
  0.444444  0.000000  0.000000      2.000000
  0.000000  0.333333  0.000000      2.000000
  0.111111  0.333333  0.000000      4.000000
  0.222222  0.333333  0.000000      4.000000
  0.333333  0.333333  0.000000      4.000000
  0.444444  0.333333  0.000000      4.000000
 
 Following cartesian coordinates:
            Coordinates               Weight
  0.000000  0.000000  0.000000      1.000000
  0.034831  0.000000  0.000000      2.000000
  0.069662  0.000000  0.000000      2.000000
  0.104493  0.000000  0.000000      2.000000
  0.139324  0.000000  0.000000      2.000000
  0.000000  0.006033  0.000000      2.000000
  0.034831  0.006033  0.000000      4.000000
  0.069662  0.006033  0.000000      4.000000
  0.104493  0.006033  0.000000      4.000000
  0.139324  0.006033  0.000000      4.000000
 
 
 Subroutine IBZKPT_HF returns following result:
 ==============================================
 
 Found     27 k-points in 1st BZ
 the following     27 k-points will be used (e.g. in the exchange kernel)
 Following reciprocal coordinates:   # in IRBZ
  0.000000  0.000000  0.000000    0.03703704   1 t-inv F
  0.111111  0.000000  0.000000    0.03703704   2 t-inv F
  0.222222  0.000000  0.000000    0.03703704   3 t-inv F
  0.333333  0.000000  0.000000    0.03703704   4 t-inv F
  0.444444  0.000000  0.000000    0.03703704   5 t-inv F
  0.000000  0.333333  0.000000    0.03703704   6 t-inv F
  0.111111  0.333333  0.000000    0.03703704   7 t-inv F
  0.222222  0.333333  0.000000    0.03703704   8 t-inv F
  0.333333  0.333333  0.000000    0.03703704   9 t-inv F
  0.444444  0.333333  0.000000    0.03703704  10 t-inv F
 -0.111111  0.000000  0.000000    0.03703704   2 t-inv F
 -0.222222  0.000000  0.000000    0.03703704   3 t-inv F
 -0.333333  0.000000  0.000000    0.03703704   4 t-inv F
 -0.444444  0.000000  0.000000    0.03703704   5 t-inv F
 -0.111111  0.333333  0.000000    0.03703704   7 t-inv F
 -0.222222  0.333333  0.000000    0.03703704   8 t-inv F
 -0.333333  0.333333  0.000000    0.03703704   9 t-inv F
 -0.444444  0.333333  0.000000    0.03703704  10 t-inv F
  0.000000 -0.333333  0.000000    0.03703704   6 t-inv T
 -0.111111 -0.333333  0.000000    0.03703704   7 t-inv T
  0.111111 -0.333333  0.000000    0.03703704   7 t-inv T
 -0.222222 -0.333333  0.000000    0.03703704   8 t-inv T
  0.222222 -0.333333  0.000000    0.03703704   8 t-inv T
 -0.333333 -0.333333  0.000000    0.03703704   9 t-inv T
  0.333333 -0.333333  0.000000    0.03703704   9 t-inv T
 -0.444444 -0.333333  0.000000    0.03703704  10 t-inv T
  0.444444 -0.333333  0.000000    0.03703704  10 t-inv T


--------------------------------------------------------------------------------------------------------




 Dimension of arrays:
   k-points           NKPTS =     10   k-points in BZ     NKDIM =     10   number of bands    NBANDS=    480
   number of dos      NEDOS =    301   number of ions     NIONS =     60
   non local maximal  LDIM  =      6   non local SUM 2l+1 LMDIM =     18
   total plane-waves  NPLWV = ******
   max r-space proj   IRMAX =      1   max aug-charges    IRDMAX=  21245
   dimension x,y,z NGX =    24 NGY =  360 NGZ =  320
   dimension x,y,z NGXF=    48 NGYF=  720 NGZF=  640
   support grid    NGXF=    48 NGYF=  720 NGZF=  640
   ions per type =              10  10  40
   NGX,Y,Z   is equivalent  to a cutoff of  12.51, 10.83, 11.12 a.u.
   NGXF,Y,Z  is equivalent  to a cutoff of  25.02, 21.66, 22.24 a.u.

 SYSTEM =  MoS2_WS2_interf                         
 POSCAR =  11-Mar-2019 16:26:27                    

 Startparameter for this run:
   NWRITE =      2    write-flag & timer
   PREC   = acc       normal or accurate (medium, high low for compatibility)
   ISTART =      1    job   : 0-new  1-cont  2-samecut
   ICHARG =      0    charge: 1-file 2-atom 10-const
   ISPIN  =      1    spin polarized calculation?
   LNONCOLLINEAR =      F non collinear calculations
   LSORBIT =      F    spin-orbit coupling
   INIWAV =      1    electr: 0-lowe 1-rand  2-diag
   LASPH  =      F    aspherical Exc in radial PAW
   METAGGA=      F    non-selfconsistent MetaGGA calc.

 Electronic Relaxation 1
   ENCUT  =  400.0 eV  29.40 Ry    5.42 a.u.   5.20 90.10 78.03*2*pi/ulx,y,z
   ENINI  =  400.0     initial cutoff
   ENAUG  =  373.4 eV  augmentation charge cutoff
   NELM   =    100;   NELMIN=  2; NELMDL= -5     # of ELM steps 
   EDIFF  = 0.1E-04   stopping-criterion for ELM
   LREAL  =      F    real-space projection
   NLSPLINE    = F    spline interpolate recip. space projectors
   LCOMPAT=      F    compatible to vasp.4.4
   GGA_COMPAT  = T    GGA compatible to vasp.4.4-vasp.4.6
   LMAXPAW     = -100 max onsite density
   LMAXMIX     =    2 max onsite mixed and CHGCAR
   VOSKOWN=      0    Vosko Wilk Nusair interpolation
   ROPT   =    0.00000   0.00000   0.00000
 Ionic relaxation
   EDIFFG = 0.1E-03   stopping-criterion for IOM
   NSW    =      0    number of steps for IOM
   NBLOCK =      1;   KBLOCK =      1    inner block; outer block 
   IBRION =     -1    ionic relax: 0-MD 1-quasi-New 2-CG
   NFREE  =      0    steps in history (QN), initial steepest desc. (CG)
   ISIF   =      2    stress and relaxation
   IWAVPR =     10    prediction:  0-non 1-charg 2-wave 3-comb
   ISYM   =      2    0-nonsym 1-usesym 2-fastsym
   LCORR  =      T    Harris-Foulkes like correction to forces

   POTIM  = 0.5000    time-step for ionic-motion
   TEIN   =    0.0    initial temperature
   TEBEG  =    0.0;   TEEND  =   0.0 temperature during run
   SMASS  =  -3.00    Nose mass-parameter (am)
   estimated Nose-frequenzy (Omega)   =  0.10E-29 period in steps =****** mass=  -0.233E-27a.u.
   SCALEE = 1.0000    scale energy and forces
   NPACO  =    256;   APACO  = 16.0  distance and # of slots for P.C.
   PSTRESS=    0.0 pullay stress

  Mass of Ions in am
   POMASS =  95.94183.85 32.07
  Ionic Valenz
   ZVAL   =   6.00  6.00  6.00
  Atomic Wigner-Seitz radii
   RWIGS  =  -1.00 -1.00 -1.00
  virtual crystal weights 
   VCA    =   1.00  1.00  1.00
   NELECT =     360.0000    total number of electrons
   NUPDOWN=      -1.0000    fix difference up-down

 DOS related values:
   EMIN   =  10.00;   EMAX   =-10.00  energy-range for DOS
   EFERMI =   0.00
   ISMEAR =     0;   SIGMA  =   0.05  broadening in eV -4-tet -1-fermi 0-gaus

 Electronic relaxation 2 (details)
   IALGO  =     38    algorithm
   LDIAG  =      T    sub-space diagonalisation (order eigenvalues)
   LSUBROT=      F    optimize rotation matrix (better conditioning)
   TURBO    =      0    0=normal 1=particle mesh
   IRESTART =      0    0=no restart 2=restart with 2 vectors
   NREBOOT  =      0    no. of reboots
   NMIN     =      0    reboot dimension
   EREF     =   0.00    reference energy to select bands
   IMIX   =      4    mixing-type and parameters
     AMIX     =   0.40;   BMIX     =  1.00
     AMIX_MAG =   1.60;   BMIX_MAG =  1.00
     AMIN     =   0.01
     WC   =   100.;   INIMIX=   1;  MIXPRE=   1;  MAXMIX= -45

 Intra band minimization:
   WEIMIN = 0.0000     energy-eigenvalue tresh-hold
   EBREAK =  0.52E-08  absolut break condition
   DEPER  =   0.30     relativ break condition  

   TIME   =   0.40     timestep for ELM

  volume/ion in A,a.u.               =     140.56       948.57
  Fermi-wavevector in a.u.,A,eV,Ry     =   0.572138  1.081185  4.453761  0.327342
  Thomas-Fermi vector in A             =   1.612889
 
 Write flags
   LWAVE        =      T    write WAVECAR
   LDOWNSAMPLE  =      F    k-point downsampling of WAVECAR
   LCHARG       =      T    write CHGCAR
   LVTOT        =      F    write LOCPOT, total local potential
   LVHAR        =      F    write LOCPOT, Hartree potential only
   LELF         =      F    write electronic localiz. function (ELF)
   LORBIT       =     12    0 simple, 1 ext, 2 COOP (PROOUT), +10 PAW based schemes


 Dipole corrections
   LMONO  =      F    monopole corrections only (constant potential shift)
   LDIPOL =      F    correct potential (dipole corrections)
   IDIPOL =      0    1-x, 2-y, 3-z, 4-all directions 
   EPSILON=  1.0000000 bulk dielectric constant

 Exchange correlation treatment:
   GGA     =    --    GGA type
   LEXCH   =     8    internal setting for exchange type
   VOSKOWN=      0    Vosko Wilk Nusair interpolation
   LHFCALC =     F    Hartree Fock is set to
   LHFONE  =     F    Hartree Fock one center treatment
   AEXX    =    0.0000 exact exchange contribution

 Linear response parameters
   LEPSILON=     F    determine dielectric tensor
   LRPA    =     F    only Hartree local field effects (RPA)
   LNABLA  =     F    use nabla operator in PAW spheres
   LVEL    =     F    velocity operator in full k-point grid
   LINTERFAST=   F  fast interpolation
   KINTER  =     0    interpolate to denser k-point grid
   CSHIFT  =0.1000    complex shift for real part using Kramers Kronig
   OMEGAMAX=  -1.0    maximum frequency
   DEG_THRESHOLD= 0.2000000E-02 threshold for treating states as degnerate
   RTIME   =   -0.100 relaxation time in fs
  (WPLASMAI=    0.000 imaginary part of plasma frequency in eV, 0.658/RTIME)
   DFIELD  = 0.0000000 0.0000000 0.0000000 field for delta impulse in time
 
 Orbital magnetization related:
   ORBITALMAG=     F  switch on orbital magnetization
   LCHIMAG   =     F  perturbation theory with respect to B field
   DQ        =  0.001000  dq finite difference perturbation B field
   LLRAUG    =     F  two centre corrections for induced B field



--------------------------------------------------------------------------------------------------------


 Static calculation
 charge density and potential will be updated during run
 non-spin polarized calculation
 Variant of blocked Davidson
 Davidson routine will perform the subspace rotation
 perform sub-space diagonalisation
    after iterative eigenvector-optimisation
 modified Broyden-mixing scheme, WC =      100.0
 initial mixing is a Kerker type mixing with AMIX =  0.4000 and BMIX =      1.0000
 Hartree-type preconditioning will be used
 using additional bands          300
 reciprocal scheme for non local part
 use partial core corrections
 calculate Harris-corrections to forces 
   (improved forces if not selfconsistent)
 use gradient corrections 
 use of overlap-Matrix (Vanderbilt PP)
 Gauss-broadening in eV      SIGMA  =   0.05


--------------------------------------------------------------------------------------------------------


  energy-cutoff  :      400.00
  volume of cell :     8433.81
      direct lattice vectors                 reciprocal lattice vectors
     3.190000000  0.000000000  0.000000000     0.313479624  0.000000000  0.000000000
     0.000000000 55.252420761  0.000000000     0.000000000  0.018098755  0.000000000
     0.000000000  0.000000000 47.850000000     0.000000000  0.000000000  0.020898642

  length of vectors
     3.190000000 55.252420761 47.850000000     0.313479624  0.018098755  0.020898642


 
 old parameters found on file WAVECAR:
  energy-cutoff  :      400.00
  volume of cell :     8433.81
      direct lattice vectors                 reciprocal lattice vectors
     3.190000000  0.000000000  0.000000000     0.313479624  0.000000000  0.000000000
     0.000000000 55.252420761  0.000000000     0.000000000  0.018098755  0.000000000
     0.000000000  0.000000000 47.850000000     0.000000000  0.000000000  0.020898642

  length of vectors

 
 k-points in units of 2pi/SCALE and weight: mos2 mono                               
   0.00000000  0.00000000  0.00000000       0.037
   0.03483107  0.00000000  0.00000000       0.074
   0.06966214  0.00000000  0.00000000       0.074
   0.10449321  0.00000000  0.00000000       0.074
   0.13932428  0.00000000  0.00000000       0.074
   0.00000000  0.00603292  0.00000000       0.074
   0.03483107  0.00603292  0.00000000       0.148
   0.06966214  0.00603292  0.00000000       0.148
   0.10449321  0.00603292  0.00000000       0.148
   0.13932428  0.00603292  0.00000000       0.148
 
 k-points in reciprocal lattice and weights: mos2 mono                               
   0.00000000  0.00000000  0.00000000       0.037
   0.11111111  0.00000000  0.00000000       0.074
   0.22222222  0.00000000  0.00000000       0.074
   0.33333333  0.00000000  0.00000000       0.074
   0.44444444  0.00000000  0.00000000       0.074
   0.00000000  0.33333333  0.00000000       0.074
   0.11111111  0.33333333  0.00000000       0.148
   0.22222222  0.33333333  0.00000000       0.148
   0.33333333  0.33333333  0.00000000       0.148
   0.44444444  0.33333333  0.00000000       0.148
 
 position of ions in fractional coordinates (direct lattice) 
   0.00000000  0.50000000  0.03274915
   0.00000000  0.60000000  0.03274915
   0.00000000  0.70000000  0.03274915
   0.00000000  0.80000000  0.03274915
   0.00000000  0.90000000  0.03274915
   0.50000000  0.55000000  0.03274915
   0.50000000  0.65000000  0.03274915
   0.50000000  0.75000000  0.03274915
   0.50000000  0.85000000  0.03274915
   0.50000000  0.95000000  0.03274915
   0.00000000  0.00000000  0.03274915
   0.00000000  0.10000000  0.03274915
   0.00000000  0.20000000  0.03274915
   0.00000000  0.30000000  0.03274915
   0.00000000  0.40000000  0.03274915
   0.50000000  0.05000000  0.03274915
   0.50000000  0.15000000  0.03274915
   0.50000000  0.25000000  0.03274915
   0.50000000  0.35000000  0.03274915
   0.50000000  0.45000000  0.03274915
   0.50000000  0.08333333  0.06549831
   0.50000000  0.08333333  0.00000000
   0.50000000  0.18333333  0.06549611
   0.50000000  0.18333333  0.00000220
   0.50000000  0.28333333  0.06549613
   0.50000000  0.28333333  0.00000218
   0.50000000  0.38333333  0.06549671
   0.50000000  0.38333333  0.00000160
   0.50000000  0.48333333  0.06540984
   0.50000000  0.48333333  0.00008847
   0.50000000  0.58333333  0.06537447
   0.50000000  0.58333333  0.00012384
   0.50000000  0.68333333  0.06537628
   0.50000000  0.68333333  0.00012203
   0.50000000  0.78333333  0.06537623
   0.50000000  0.78333333  0.00012208
   0.50000000  0.88333333  0.06537599
   0.50000000  0.88333333  0.00012232
   0.50000000  0.98333333  0.06545341
   0.50000000  0.98333333  0.00004490
   0.00000000  0.03333333  0.06549095
   0.00000000  0.03333333  0.00000736
   0.00000000  0.13333333  0.06549617
   0.00000000  0.13333333  0.00000214
   0.00000000  0.23333333  0.06549610
   0.00000000  0.23333333  0.00000221
   0.00000000  0.33333333  0.06549643
   0.00000000  0.33333333  0.00000188
   0.00000000  0.43333333  0.06549128
   0.00000000  0.43333333  0.00000703
   0.00000000  0.53333333  0.06538041
   0.00000000  0.53333333  0.00011790
   0.00000000  0.63333333  0.06537626
   0.00000000  0.63333333  0.00012205
   0.00000000  0.73333333  0.06537622
   0.00000000  0.73333333  0.00012209
   0.00000000  0.83333333  0.06537599
   0.00000000  0.83333333  0.00012232
   0.00000000  0.93333333  0.06537419
   0.00000000  0.93333333  0.00012412
 
 position of ions in cartesian coordinates  (Angst):
   0.00000000 27.62621038  1.56704705
   0.00000000 33.15145246  1.56704705
   0.00000000 38.67669453  1.56704705
   0.00000000 44.20193661  1.56704705
   0.00000000 49.72717869  1.56704705
   1.59500000 30.38883142  1.56704705
   1.59500000 35.91407349  1.56704705
   1.59500000 41.43931557  1.56704705
   1.59500000 46.96455765  1.56704705
   1.59500000 52.48979972  1.56704705
   0.00000000  0.00000000  1.56704705
   0.00000000  5.52524208  1.56704705
   0.00000000 11.05048415  1.56704705
   0.00000000 16.57572623  1.56704705
   0.00000000 22.10096830  1.56704705
   1.59500000  2.76262104  1.56704705
   1.59500000  8.28786311  1.56704705
   1.59500000 13.81310519  1.56704705
   1.59500000 19.33834727  1.56704705
   1.59500000 24.86358934  1.56704705
   1.59500000  4.60436840  3.13409410
   1.59500000  4.60436840  0.00000000
   1.59500000 10.12961047  3.13398863
   1.59500000 10.12961047  0.00010547
   1.59500000 15.65485255  3.13398986
   1.59500000 15.65485255  0.00010424
   1.59500000 21.18009463  3.13401744
   1.59500000 21.18009463  0.00007666
   1.59500000 26.70533670  3.12986069
   1.59500000 26.70533670  0.00423341
   1.59500000 32.23057878  3.12816835
   1.59500000 32.23057878  0.00592575
   1.59500000 37.75582085  3.12825508
   1.59500000 37.75582085  0.00583902
   1.59500000 43.28106293  3.12825258
   1.59500000 43.28106293  0.00584152
   1.59500000 48.80630501  3.12824128
   1.59500000 48.80630501  0.00585282
   1.59500000 54.33154708  3.13194545
   1.59500000 54.33154708  0.00214865
   0.00000000  1.84174736  3.13374185
   0.00000000  1.84174736  0.00035225
   0.00000000  7.36698943  3.13399185
   0.00000000  7.36698943  0.00010225
   0.00000000 12.89223151  3.13398847
   0.00000000 12.89223151  0.00010563
   0.00000000 18.41747359  3.13400410
   0.00000000 18.41747359  0.00009000
   0.00000000 23.94271566  3.13375762
   0.00000000 23.94271566  0.00033649
   0.00000000 29.46795774  3.12845262
   0.00000000 29.46795774  0.00564148
   0.00000000 34.99319982  3.12825390
   0.00000000 34.99319982  0.00584020
   0.00000000 40.51844189  3.12825231
   0.00000000 40.51844189  0.00584179
   0.00000000 46.04368397  3.12824095
   0.00000000 46.04368397  0.00585315
   0.00000000 51.56892604  3.12815496
   0.00000000 51.56892604  0.00593914
 


--------------------------------------------------------------------------------------------------------


 k-point  1 :   0.0000 0.0000 0.0000  plane waves:  153175
 k-point  2 :   0.1111 0.0000 0.0000  plane waves:  153059
 k-point  3 :   0.2222 0.0000 0.0000  plane waves:  152948
 k-point  4 :   0.3333 0.0000 0.0000  plane waves:  153236
 k-point  5 :   0.4444 0.0000 0.0000  plane waves:  153464
 k-point  6 :   0.0000 0.3333 0.0000  plane waves:  153138
 k-point  7 :   0.1111 0.3333 0.0000  plane waves:  153099
 k-point  8 :   0.2222 0.3333 0.0000  plane waves:  152932
 k-point  9 :   0.3333 0.3333 0.0000  plane waves:  153280
 k-point 10 :   0.4444 0.3333 0.0000  plane waves:  153494

 maximum and minimum number of plane-waves per node :    153494   152932

 maximum number of plane-waves:    153494
 maximum index in each direction: 
   IXMAX=    5   IYMAX=   90   IZMAX=   78
   IXMIN=   -5   IYMIN=  -90   IZMIN=  -78


 serial   3D FFT for wavefunctions
 parallel 3D FFT for charge:
    minimum data exchange during FFTs selected (reduces bandwidth)


 total amount of memory used by VASP MPI-rank0  5630905. kBytes
=======================================================================

   base      :      30000. kBytes
   nonl-proj :     810453. kBytes
   fftplans  :     258919. kBytes
   grid      :     583695. kBytes
   one-center:        933. kBytes
   wavefun   :    3946905. kBytes
 
     INWAV:  cpu time   50.5173: real time   50.5760
 Broyden mixing: mesh for mixing (old mesh)
   NGX = 11   NGY =181   NGZ =157
  (NGX  = 48   NGY  =720   NGZ  =640)
  gives a total of 312587 points

 charge density for first step will be calculated from the start-wavefunctions


--------------------------------------------------------------------------------------------------------


 Maximum index for augmentation-charges         6811 (set IRDMAX)


--------------------------------------------------------------------------------------------------------


 initial charge from wavefunction
 First call to EWALD:  gamma=   0.087
 Maximum number of real-space cells15x 1x 1
 Maximum number of reciprocal cells 1x 7x 6

    FEWALD:  cpu time    0.0854: real time    0.0854


--------------------------------------- Iteration      1(   1)  ---------------------------------------


    POTLOK:  cpu time    9.0140: real time    9.2077
    SETDIJ:  cpu time    0.5268: real time    0.5269
     EDDAV:  cpu time 1048.9763: real time 1049.4410
       DOS:  cpu time    0.0026: real time    0.0026
    --------------------------------------------
      LOOP:  cpu time 1058.5197: real time 1059.1781

 eigenvalue-minimisations  :  9537
 total energy-change (2. order) :-0.4551027E+03  (-0.1838578E-05)
 number of electron     360.0000050 magnetization 
 augmentation part      -15.1333542 magnetization 

 Free energy of the ion-electron system (eV)
  ---------------------------------------------------
  alpha Z        PSCENC =       143.63855548
  Ewald energy   TEWEN  =    200256.89950005
  -Hartree energ DENC   =   -213528.20320657
  -exchange      EXHF   =         0.00000000
  -V(xc)+E(xc)   XCENC  =      -569.99039953
  PAW double counting   =     36660.76124873   -35264.54486245
  entropy T*S    EENTRO =        -0.00000000
  eigenvalues    EBANDS =     -3447.62998265
  atomic energy  EATOM  =     15293.96648387
  Solvation  Ediel_sol  =         0.00000000
  ---------------------------------------------------
  free energy    TOTEN  =      -455.10266306 eV

  energy without entropy =     -455.10266306  energy(sigma->0) =     -455.10266306


--------------------------------------------------------------------------------------------------------




--------------------------------------- Iteration      1(   2)  ---------------------------------------


     EDDAV:  cpu time  940.3098: real time  940.6206
       DOS:  cpu time    0.0039: real time    0.0039
    --------------------------------------------
      LOOP:  cpu time  940.3136: real time  940.6244

 eigenvalue-minimisations  :  8667
 total energy-change (2. order) :-0.5787115E-06  (-0.4250773E-06)
 number of electron     360.0000050 magnetization 
 augmentation part      -15.1333542 magnetization 

 Free energy of the ion-electron system (eV)
  ---------------------------------------------------
  alpha Z        PSCENC =       143.63855548
  Ewald energy   TEWEN  =    200256.89950005
  -Hartree energ DENC   =   -213528.20320657
  -exchange      EXHF   =         0.00000000
  -V(xc)+E(xc)   XCENC  =      -569.99039953
  PAW double counting   =     36660.76124873   -35264.54486245
  entropy T*S    EENTRO =        -0.00000000
  eigenvalues    EBANDS =     -3447.62998323
  atomic energy  EATOM  =     15293.96648387
  Solvation  Ediel_sol  =         0.00000000
  ---------------------------------------------------
  free energy    TOTEN  =      -455.10266364 eV

  energy without entropy =     -455.10266364  energy(sigma->0) =     -455.10266364


--------------------------------------------------------------------------------------------------------




--------------------------------------- Iteration      1(   3)  ---------------------------------------


     EDDAV:  cpu time 1052.0012: real time 1052.5712
       DOS:  cpu time    0.0033: real time    0.0033
    --------------------------------------------
      LOOP:  cpu time 1052.0045: real time 1052.5745

 eigenvalue-minimisations  : 10047
 total energy-change (2. order) :-0.5572292E-07  ( 0.9542808E-07)
 number of electron     360.0000050 magnetization 
 augmentation part      -15.1333542 magnetization 

 Free energy of the ion-electron system (eV)
  ---------------------------------------------------
  alpha Z        PSCENC =       143.63855548
  Ewald energy   TEWEN  =    200256.89950005
  -Hartree energ DENC   =   -213528.20320657
  -exchange      EXHF   =         0.00000000
  -V(xc)+E(xc)   XCENC  =      -569.99039953
  PAW double counting   =     36660.76124873   -35264.54486245
  entropy T*S    EENTRO =        -0.00000000
  eigenvalues    EBANDS =     -3447.62998329
  atomic energy  EATOM  =     15293.96648387
  Solvation  Ediel_sol  =         0.00000000
  ---------------------------------------------------
  free energy    TOTEN  =      -455.10266370 eV

  energy without entropy =     -455.10266370  energy(sigma->0) =     -455.10266370


--------------------------------------------------------------------------------------------------------




--------------------------------------- Iteration      1(   4)  ---------------------------------------


     EDDAV:  cpu time 1004.8075: real time 1005.4037
       DOS:  cpu time    0.0085: real time    0.0085
    --------------------------------------------
      LOOP:  cpu time 1004.8160: real time 1005.4122

 eigenvalue-minimisations  :  9597
 total energy-change (2. order) :-0.1252920E-07  ( 0.1363608E-06)
 number of electron     360.0000050 magnetization 
 augmentation part      -15.1333542 magnetization 

 Free energy of the ion-electron system (eV)
  ---------------------------------------------------
  alpha Z        PSCENC =       143.63855548
  Ewald energy   TEWEN  =    200256.89950005
  -Hartree energ DENC   =   -213528.20320657
  -exchange      EXHF   =         0.00000000
  -V(xc)+E(xc)   XCENC  =      -569.99039953
  PAW double counting   =     36660.76124873   -35264.54486245
  entropy T*S    EENTRO =        -0.00000000
  eigenvalues    EBANDS =     -3447.62998330
  atomic energy  EATOM  =     15293.96648387
  Solvation  Ediel_sol  =         0.00000000
  ---------------------------------------------------
  free energy    TOTEN  =      -455.10266371 eV

  energy without entropy =     -455.10266371  energy(sigma->0) =     -455.10266371


--------------------------------------------------------------------------------------------------------




--------------------------------------- Iteration      1(   5)  ---------------------------------------


     EDDAV:  cpu time 1028.2054: real time 1028.2629
       DOS:  cpu time    0.0046: real time    0.0046
    CHARGE:  cpu time   13.1850: real time   13.1852
    MIXING:  cpu time    0.4350: real time    0.4351
    --------------------------------------------
      LOOP:  cpu time 1041.8301: real time 1041.8878

 eigenvalue-minimisations  :  9885
 total energy-change (2. order) :-0.4147296E-08  ( 0.1452959E-06)
 number of electron     360.0000050 magnetization 
 augmentation part      -15.1356111 magnetization 

 Broyden mixing:
  rms(total) = 0.13449E-02    rms(broyden)= 0.13449E-02
  rms(prec ) = 0.13834E-02
  weight for this iteration     100.00

 Free energy of the ion-electron system (eV)
  ---------------------------------------------------
  alpha Z        PSCENC =       143.63855548
  Ewald energy   TEWEN  =    200256.89950005
  -Hartree energ DENC   =   -213528.20320657
  -exchange      EXHF   =         0.00000000
  -V(xc)+E(xc)   XCENC  =      -569.99039953
  PAW double counting   =     36660.76124873   -35264.54486245
  entropy T*S    EENTRO =        -0.00000000
  eigenvalues    EBANDS =     -3447.62998330
  atomic energy  EATOM  =     15293.96648387
  Solvation  Ediel_sol  =         0.00000000
  ---------------------------------------------------
  free energy    TOTEN  =      -455.10266372 eV

  energy without entropy =     -455.10266372  energy(sigma->0) =     -455.10266372


--------------------------------------------------------------------------------------------------------




--------------------------------------- Iteration      1(   6)  ---------------------------------------


    POTLOK:  cpu time    8.3257: real time    8.5066
    SETDIJ:  cpu time    0.0342: real time    0.0342
     EDDAV:  cpu time 1101.9837: real time 1102.8079
       DOS:  cpu time    0.0091: real time    0.0091
    --------------------------------------------
      LOOP:  cpu time 1110.3526: real time 1111.3577

 eigenvalue-minimisations  : 11766
 total energy-change (2. order) : 0.3345638E-05  (-0.7770837E-06)
 number of electron     360.0000050 magnetization 
 augmentation part      -15.1356111 magnetization 

 Free energy of the ion-electron system (eV)
  ---------------------------------------------------
  alpha Z        PSCENC =       143.63855548
  Ewald energy   TEWEN  =    200256.89950005
  -Hartree energ DENC   =   -213528.13254474
  -exchange      EXHF   =         0.00000000
  -V(xc)+E(xc)   XCENC  =      -569.98666809
  PAW double counting   =     36660.21601773   -35263.99993366
  entropy T*S    EENTRO =        -0.00000000
  eigenvalues    EBANDS =     -3447.70407101
  atomic energy  EATOM  =     15293.96648387
  Solvation  Ediel_sol  =         0.00000000
  ---------------------------------------------------
  free energy    TOTEN  =      -455.10266037 eV

  energy without entropy =     -455.10266037  energy(sigma->0) =     -455.10266037


--------------------------------------------------------------------------------------------------------




 average (electrostatic) potential at core
  the test charge radii are     1.2296  1.1823  0.9698
  (the norm of the test charge is              1.0000)
       1 -47.8838       2 -47.9032       3 -47.9049       4 -47.9045       5 -47.9075
       6 -47.9020       7 -47.9041       8 -47.9052       9 -47.9039      10 -47.8798
      11 -50.1012      12 -50.0856      13 -50.0846      14 -50.0858      15 -50.0842
      16 -50.0858      17 -50.0848      18 -50.0849      19 -50.0873      20 -50.1126
      21 -95.7816      22 -95.7816      23 -95.7808      24 -95.7808      25 -95.7815
      26 -95.7815      27 -95.7836      28 -95.7836      29 -95.7540      30 -95.7540
      31 -95.7449      32 -95.7449      33 -95.7475      34 -95.7475      35 -95.7481
      36 -95.7481      37 -95.7464      38 -95.7464      39 -95.7662      40 -95.7662
      41 -95.7873      42 -95.7873      43 -95.7810      44 -95.7810      45 -95.7809
      46 -95.7809      47 -95.7824      48 -95.7824      49 -95.7952      50 -95.7952
      51 -95.7381      52 -95.7381      53 -95.7463      54 -95.7463      55 -95.7481
      56 -95.7481      57 -95.7473      58 -95.7473      59 -95.7360      60 -95.7360
 
 
 
 E-fermi :  -4.1255     XC(G=0):  -1.5991     alpha+bet : -1.5094


 k-point     1 :       0.0000    0.0000    0.0000
  band No.  band energies     occupation 
      1     -19.0095      2.00000
      2     -18.9267      2.00000
      3     -18.7932      2.00000
      4     -18.6225      2.00000
      5     -18.4929      2.00000
      6     -18.4081      2.00000
      7     -18.3827      2.00000
      8     -18.1884      2.00000
      9     -18.1756      2.00000
     10     -17.9280      2.00000
     11     -17.9068      2.00000
     12     -17.6370      2.00000
     13     -17.6165      2.00000
     14     -17.4575      2.00000
     15     -17.4248      2.00000
     16     -17.3716      2.00000
     17     -17.3523      2.00000
     18     -17.3297      2.00000
     19     -17.3062      2.00000
     20     -17.2775      2.00000
     21     -17.2249      2.00000
     22     -17.2239      2.00000
     23     -17.1320      2.00000
     24     -17.1271      2.00000
     25     -17.1154      2.00000
     26     -17.0860      2.00000
     27     -17.0169      2.00000
     28     -17.0130      2.00000
     29     -16.9685      2.00000
     30     -16.8957      2.00000
     31     -16.8900      2.00000
     32     -16.8529      2.00000
     33     -16.7812      2.00000
     34     -16.7756      2.00000
     35     -16.7572      2.00000
     36     -16.6978      2.00000
     37     -16.6832      2.00000
     38     -16.6047      2.00000
     39     -16.5346      2.00000
     40     -16.4885      2.00000
     41     -10.7166      2.00000
     42     -10.6000      2.00000
     43     -10.5725      2.00000
     44     -10.5005      2.00000
     45     -10.3719      2.00000
     46     -10.3428      2.00000
     47     -10.1615      2.00000
     48     -10.1470      2.00000
     49     -10.1316      2.00000
     50     -10.0073      2.00000
     51      -9.9360      2.00000
     52      -9.9187      2.00000
     53      -9.9162      2.00000
     54      -9.8853      2.00000
     55      -9.7480      2.00000
     56      -9.7274      2.00000
     57      -9.6317      2.00000
     58      -9.6111      2.00000
     59      -9.4860      2.00000
     60      -9.4779      2.00000
     61      -9.3994      2.00000
     62      -9.3023      2.00000
     63      -9.2101      2.00000
     64      -9.0889      2.00000
     65      -9.0598      2.00000
     66      -8.8162      2.00000
     67      -8.8139      2.00000
     68      -8.8085      2.00000
     69      -8.7957      2.00000
     70      -8.7321      2.00000
     71      -8.7265      2.00000
     72      -8.6699      2.00000
     73      -8.5840      2.00000
     74      -8.5358      2.00000
     75      -8.4696      2.00000
     76      -8.4583      2.00000
     77      -8.4532      2.00000
     78      -8.4425      2.00000
     79      -8.3724      2.00000
     80      -8.3593      2.00000
     81      -8.1946      2.00000
     82      -8.1825      2.00000
     83      -8.0688      2.00000
     84      -8.0665      2.00000
     85      -7.8373      2.00000
     86      -7.8356      2.00000
     87      -7.7109      2.00000
     88      -7.6650      2.00000
     89      -7.6636      2.00000
     90      -7.6630      2.00000
     91      -7.6115      2.00000
     92      -7.5545      2.00000
     93      -7.5356      2.00000
     94      -7.4879      2.00000
     95      -7.4787      2.00000
     96      -7.4074      2.00000
     97      -7.3975      2.00000
     98      -7.2636      2.00000
     99      -7.2630      2.00000
    100      -7.2436      2.00000
    101      -7.2127      2.00000
    102      -7.2100      2.00000
    103      -7.2050      2.00000
    104      -7.1662      2.00000
    105      -7.1086      2.00000
    106      -7.1083      2.00000
    107      -7.0641      2.00000
    108      -6.9792      2.00000
    109      -6.9721      2.00000
    110      -6.9696      2.00000
    111      -6.9645      2.00000
    112      -6.8785      2.00000
    113      -6.8739      2.00000
    114      -6.7950      2.00000
    115      -6.7889      2.00000
    116      -6.7080      2.00000
    117      -6.7063      2.00000
    118      -6.5619      2.00000
    119      -6.5592      2.00000
    120      -6.5353      2.00000
    121      -6.5111      2.00000
    122      -6.4395      2.00000
    123      -6.4378      2.00000
    124      -6.4215      2.00000
    125      -6.3872      2.00000
    126      -6.3346      2.00000
    127      -6.3042      2.00000
    128      -6.3004      2.00000
    129      -6.2856      2.00000
    130      -6.2808      2.00000
    131      -6.2693      2.00000
    132      -6.1979      2.00000
    133      -6.1965      2.00000
    134      -6.1888      2.00000
    135      -6.1767      2.00000
    136      -6.0512      2.00000
    137      -6.0445      2.00000
    138      -6.0430      2.00000
    139      -6.0328      2.00000
    140      -6.0247      2.00000
    141      -6.0241      2.00000
    142      -5.9608      2.00000
    143      -5.9595      2.00000
    144      -5.8726      2.00000
    145      -5.8625      2.00000
    146      -5.8343      2.00000
    147      -5.8179      2.00000
    148      -5.8082      2.00000
    149      -5.7952      2.00000
    150      -5.7187      2.00000
    151      -5.7139      2.00000
    152      -5.6794      2.00000
    153      -5.6533      2.00000
    154      -5.6364      2.00000
    155      -5.6234      2.00000
    156      -5.5918      2.00000
    157      -5.5421      2.00000
    158      -5.5374      2.00000
    159      -5.5100      2.00000
    160      -5.4952      2.00000
    161      -5.4905      2.00000
    162      -5.4486      2.00000
    163      -5.4069      2.00000
    164      -5.4002      2.00000
    165      -5.3789      2.00000
    166      -5.3699      2.00000
    167      -5.2675      2.00000
    168      -5.2149      2.00000
    169      -5.1766      2.00000
    170      -5.1765      2.00000
    171      -5.1280      2.00000
    172      -4.8926      2.00000
    173      -4.8915      2.00000
    174      -4.6537      2.00000
    175      -4.6490      2.00000
    176      -4.5140      2.00000
    177      -4.5014      2.00000
    178      -4.4579      2.00000
    179      -4.4093      2.00000
    180      -4.3708      2.00000
    181      -2.3055      0.00000
    182      -2.3016      0.00000
    183      -2.2912      0.00000
    184      -2.2679      0.00000
    185      -2.2642      0.00000
    186      -2.2529      0.00000
    187      -2.1863      0.00000
    188      -2.1753      0.00000
    189      -2.1747      0.00000
    190      -2.0729      0.00000
    191      -2.0650      0.00000
    192      -2.0502      0.00000
    193      -1.9827      0.00000
    194      -1.9721      0.00000
    195      -1.9348      0.00000
    196      -1.9326      0.00000
    197      -1.8976      0.00000
    198      -1.8936      0.00000
    199      -1.8772      0.00000
    200      -1.8156      0.00000
    201      -1.8097      0.00000
    202      -1.8088      0.00000
    203      -1.7967      0.00000
    204      -1.7951      0.00000
    205      -1.7618      0.00000
    206      -1.7579      0.00000
    207      -1.7482      0.00000
    208      -1.7341      0.00000
    209      -1.7184      0.00000
    210      -1.7020      0.00000
    211      -1.6878      0.00000
    212      -1.6682      0.00000
    213      -1.6581      0.00000
    214      -1.6419      0.00000
    215      -1.5833      0.00000
    216      -1.5832      0.00000
    217      -1.5736      0.00000
    218      -1.5552      0.00000
    219      -1.5423      0.00000
    220      -1.5390      0.00000
    221      -1.5314      0.00000
    222      -1.5280      0.00000
    223      -1.5236      0.00000
    224      -1.4791      0.00000
    225      -1.4680      0.00000
    226      -1.4579      0.00000
    227      -1.4466      0.00000
    228      -1.3816      0.00000
    229      -1.3753      0.00000
    230      -1.3524      0.00000
    231      -1.3477      0.00000
    232      -1.3379      0.00000
    233      -1.3211      0.00000
    234      -1.3198      0.00000
    235      -1.2867      0.00000
    236      -1.1547      0.00000
    237      -1.1042      0.00000
    238      -1.0811      0.00000
    239      -1.0633      0.00000
    240      -1.0345      0.00000
    241      -0.8273      0.00000
    242      -0.8012      0.00000
    243      -0.7893      0.00000
    244      -0.7653      0.00000
    245      -0.6104      0.00000
    246      -0.6082      0.00000
    247      -0.5399      0.00000
    248      -0.5305      0.00000
    249      -0.4623      0.00000
    250      -0.3584      0.00000
    251      -0.3483      0.00000
    252      -0.3231      0.00000
    253      -0.2821      0.00000
    254      -0.2378      0.00000
    255      -0.2240      0.00000
    256      -0.0842      0.00000
    257       0.0769      0.00000
    258       0.2024      0.00000
    259       0.2887      0.00000
    260       0.3394      0.00000
    261       0.7332      0.00000
    262       0.8807      0.00000
    263       0.9208      0.00000
    264       0.9746      0.00000
    265       1.0593      0.00000
    266       1.1220      0.00000
    267       1.1304      0.00000
    268       1.1437      0.00000
    269       1.1465      0.00000
    270       1.2631      0.00000
    271       1.2741      0.00000
    272       1.2781      0.00000
    273       1.3819      0.00000
    274       1.4024      0.00000
    275       1.4118      0.00000
    276       1.4490      0.00000
    277       1.4729      0.00000
    278       1.4857      0.00000
    279       1.5134      0.00000
    280       1.5143      0.00000
    281       1.5258      0.00000
    282       1.5776      0.00000
    283       1.5803      0.00000
    284       1.5808      0.00000
    285       1.6263      0.00000
    286       1.6293      0.00000
    287       1.6686      0.00000
    288       1.6768      0.00000
    289       1.7174      0.00000
    290       1.7204      0.00000
    291       1.7238      0.00000
    292       1.7259      0.00000
    293       1.7260      0.00000
    294       1.7722      0.00000
    295       1.8334      0.00000
    296       1.8382      0.00000
    297       1.8384      0.00000
    298       1.8652      0.00000
    299       1.8723      0.00000
    300       1.8746      0.00000
    301       1.8747      0.00000
    302       1.9254      0.00000
    303       1.9301      0.00000
    304       1.9465      0.00000
    305       1.9714      0.00000
    306       1.9714      0.00000
    307       1.9757      0.00000
    308       2.0723      0.00000
    309       2.0735      0.00000
    310       2.0738      0.00000
    311       2.0749      0.00000
    312       2.0823      0.00000
    313       2.0964      0.00000
    314       2.0989      0.00000
    315       2.1302      0.00000
    316       2.1624      0.00000
    317       2.1642      0.00000
    318       2.2182      0.00000
    319       2.2186      0.00000
    320       2.2361      0.00000
    321       2.2364      0.00000
    322       2.2427      0.00000
    323       2.2522      0.00000
    324       2.3123      0.00000
    325       2.3125      0.00000
    326       2.3199      0.00000
    327       2.3201      0.00000
    328       2.3889      0.00000
    329       2.3939      0.00000
    330       2.3974      0.00000
    331       2.4020      0.00000
    332       2.4381      0.00000
    333       2.4434      0.00000
    334       2.4510      0.00000
    335       2.4570      0.00000
    336       2.4656      0.00000
    337       2.5227      0.00000
    338       2.5263      0.00000
    339       2.5986      0.00000
    340       2.5991      0.00000
    341       2.6284      0.00000
    342       2.6576      0.00000
    343       2.6576      0.00000
    344       2.6596      0.00000
    345       2.6604      0.00000
    346       2.6652      0.00000
    347       2.6776      0.00000
    348       2.6787      0.00000
    349       2.7139      0.00000
    350       2.7550      0.00000
    351       2.7550      0.00000
    352       2.7709      0.00000
    353       2.7814      0.00000
    354       2.8154      0.00000
    355       2.8250      0.00000
    356       2.8409      0.00000
    357       2.8410      0.00000
    358       2.8765      0.00000
    359       2.8806      0.00000
    360       2.9011      0.00000
    361       2.9109      0.00000
    362       2.9506      0.00000
    363       2.9677      0.00000
    364       3.0129      0.00000
    365       3.0457      0.00000
    366       3.0773      0.00000
    367       3.0813      0.00000
    368       3.0838      0.00000
    369       3.0908      0.00000
    370       3.0908      0.00000
    371       3.1372      0.00000
    372       3.1439      0.00000
    373       3.1668      0.00000
    374       3.1752      0.00000
    375       3.1769      0.00000
    376       3.1770      0.00000
    377       3.2028      0.00000
    378       3.2031      0.00000
    379       3.2155      0.00000
    380       3.2595      0.00000
    381       3.2837      0.00000
    382       3.2840      0.00000
    383       3.2851      0.00000
    384       3.2895      0.00000
    385       3.2908      0.00000
    386       3.2988      0.00000
    387       3.3047      0.00000
    388       3.3162      0.00000
    389       3.3480      0.00000
    390       3.3657      0.00000
    391       3.3681      0.00000
    392       3.3995      0.00000
    393       3.4034      0.00000
    394       3.4329      0.00000
    395       3.4565      0.00000
    396       3.4597      0.00000
    397       3.4853      0.00000
    398       3.4910      0.00000
    399       3.5112      0.00000
    400       3.5168      0.00000
    401       3.5229      0.00000
    402       3.5231      0.00000
    403       3.5297      0.00000
    404       3.5931      0.00000
    405       3.5937      0.00000
    406       3.5941      0.00000
    407       3.6108      0.00000
    408       3.6113      0.00000
    409       3.6630      0.00000
    410       3.6647      0.00000
    411       3.6813      0.00000
    412       3.7059      0.00000
    413       3.7545      0.00000
    414       3.8001      0.00000
    415       3.8078      0.00000
    416       3.8359      0.00000
    417       3.8390      0.00000
    418       3.8390      0.00000
    419       3.8400      0.00000
    420       3.8509      0.00000
    421       3.8511      0.00000
    422       3.8872      0.00000
    423       3.8881      0.00000
    424       3.9221      0.00000
    425       3.9237      0.00000
    426       3.9259      0.00000
    427       3.9790      0.00000
    428       3.9859      0.00000
    429       4.0182      0.00000
    430       4.0219      0.00000
    431       4.0257      0.00000
    432       4.0259      0.00000
    433       4.0513      0.00000
    434       4.0540      0.00000
    435       4.0644      0.00000
    436       4.0780      0.00000
    437       4.1234      0.00000
    438       4.1240      0.00000
    439       4.1754      0.00000
    440       4.1857      0.00000
    441       4.2403      0.00000
    442       4.2405      0.00000
    443       4.3023      0.00000
    444       4.3050      0.00000
    445       4.3186      0.00000
    446       4.3187      0.00000
    447       4.3357      0.00000
    448       4.3369      0.00000
    449       4.3473      0.00000
    450       4.3547      0.00000
    451       4.3560      0.00000
    452       4.3573      0.00000
    453       4.3574      0.00000
    454       4.3932      0.00000
    455       4.4000      0.00000
    456       4.4010      0.00000
    457       4.4054      0.00000
    458       4.4567      0.00000
    459       4.4674      0.00000
    460       4.5188      0.00000
    461       4.5440      0.00000
    462       4.5448      0.00000
    463       4.5689      0.00000
    464       4.5697      0.00000
    465       4.6425      0.00000
    466       4.6570      0.00000
    467       4.6652      0.00000
    468       4.6667      0.00000
    469       4.6713      0.00000
    470       4.6794      0.00000
    471       4.6914      0.00000
    472       4.7175      0.00000
    473       4.7667      0.00000
    474       4.7820      0.00000
    475       4.7828      0.00000
    476       4.7937      0.00000
    477       4.8033      0.00000
    478       4.8535      0.00000
    479       4.8857      0.00000
    480       4.9293      0.00000

 k-point     2 :       0.1111    0.0000    0.0000
  band No.  band energies     occupation 
      1     -18.8651      2.00000
      2     -18.7849      2.00000
      3     -18.6556      2.00000
      4     -18.4903      2.00000
      5     -18.3650      2.00000
      6     -18.2830      2.00000
      7     -18.2584      2.00000
      8     -18.0706      2.00000
      9     -18.0585      2.00000
     10     -17.8193      2.00000
     11     -17.7995      2.00000
     12     -17.5394      2.00000
     13     -17.5208      2.00000
     14     -17.3986      2.00000
     15     -17.3668      2.00000
     16     -17.3150      2.00000
     17     -17.2671      2.00000
     18     -17.2505      2.00000
     19     -17.2465      2.00000
     20     -17.2176      2.00000
     21     -17.1702      2.00000
     22     -17.1669      2.00000
     23     -17.0792      2.00000
     24     -17.0752      2.00000
     25     -17.0421      2.00000
     26     -17.0148      2.00000
     27     -16.9682      2.00000
     28     -16.9646      2.00000
     29     -16.9030      2.00000
     30     -16.8506      2.00000
     31     -16.8455      2.00000
     32     -16.7923      2.00000
     33     -16.7390      2.00000
     34     -16.7346      2.00000
     35     -16.7014      2.00000
     36     -16.6595      2.00000
     37     -16.6428      2.00000
     38     -16.5652      2.00000
     39     -16.4964      2.00000
     40     -16.4512      2.00000
     41     -10.5381      2.00000
     42     -10.4255      2.00000
     43     -10.4079      2.00000
     44     -10.3304      2.00000
     45     -10.2263      2.00000
     46     -10.1812      2.00000
     47     -10.0307      2.00000
     48      -9.9963      2.00000
     49      -9.9720      2.00000
     50      -9.8608      2.00000
     51      -9.8224      2.00000
     52      -9.8172      2.00000
     53      -9.7810      2.00000
     54      -9.7514      2.00000
     55      -9.6460      2.00000
     56      -9.6278      2.00000
     57      -9.5553      2.00000
     58      -9.5379      2.00000
     59      -9.5307      2.00000
     60      -9.4271      2.00000
     61      -9.4220      2.00000
     62      -9.4169      2.00000
     63      -9.3383      2.00000
     64      -9.1977      2.00000
     65      -9.1693      2.00000
     66      -8.8825      2.00000
     67      -8.8706      2.00000
     68      -8.8291      2.00000
     69      -8.8105      2.00000
     70      -8.6810      2.00000
     71      -8.6785      2.00000
     72      -8.6633      2.00000
     73      -8.5624      2.00000
     74      -8.5098      2.00000
     75      -8.4874      2.00000
     76      -8.4833      2.00000
     77      -8.4431      2.00000
     78      -8.4142      2.00000
     79      -8.3242      2.00000
     80      -8.3088      2.00000
     81      -8.2662      2.00000
     82      -8.2584      2.00000
     83      -8.0624      2.00000
     84      -8.0615      2.00000
     85      -8.0441      2.00000
     86      -8.0294      2.00000
     87      -7.7683      2.00000
     88      -7.7620      2.00000
     89      -7.7582      2.00000
     90      -7.7479      2.00000
     91      -7.7395      2.00000
     92      -7.7086      2.00000
     93      -7.6907      2.00000
     94      -7.6811      2.00000
     95      -7.6482      2.00000
     96      -7.6248      2.00000
     97      -7.6238      2.00000
     98      -7.5870      2.00000
     99      -7.5844      2.00000
    100      -7.5824      2.00000
    101      -7.5125      2.00000
    102      -7.4528      2.00000
    103      -7.4476      2.00000
    104      -7.4073      2.00000
    105      -7.4048      2.00000
    106      -7.4025      2.00000
    107      -7.1869      2.00000
    108      -7.1843      2.00000
    109      -7.1595      2.00000
    110      -7.1519      2.00000
    111      -7.0159      2.00000
    112      -6.9579      2.00000
    113      -6.9576      2.00000
    114      -6.9295      2.00000
    115      -6.9287      2.00000
    116      -6.8423      2.00000
    117      -6.8415      2.00000
    118      -6.8174      2.00000
    119      -6.8023      2.00000
    120      -6.8002      2.00000
    121      -6.6984      2.00000
    122      -6.6946      2.00000
    123      -6.5529      2.00000
    124      -6.5485      2.00000
    125      -6.5340      2.00000
    126      -6.5331      2.00000
    127      -6.5073      2.00000
    128      -6.4973      2.00000
    129      -6.4641      2.00000
    130      -6.4380      2.00000
    131      -6.4366      2.00000
    132      -6.4020      2.00000
    133      -6.3994      2.00000
    134      -6.3465      2.00000
    135      -6.3358      2.00000
    136      -6.3206      2.00000
    137      -6.2985      2.00000
    138      -6.2842      2.00000
    139      -6.2556      2.00000
    140      -6.2367      2.00000
    141      -6.2349      2.00000
    142      -6.2176      2.00000
    143      -6.2079      2.00000
    144      -6.1934      2.00000
    145      -6.1749      2.00000
    146      -6.0108      2.00000
    147      -5.9989      2.00000
    148      -5.8085      2.00000
    149      -5.7979      2.00000
    150      -5.6871      2.00000
    151      -5.6659      2.00000
    152      -5.6341      2.00000
    153      -5.6196      2.00000
    154      -5.6081      2.00000
    155      -5.5547      2.00000
    156      -5.5423      2.00000
    157      -5.4786      2.00000
    158      -5.4711      2.00000
    159      -5.4047      2.00000
    160      -5.4014      2.00000
    161      -5.2798      2.00000
    162      -5.2790      2.00000
    163      -5.2248      2.00000
    164      -5.2245      2.00000
    165      -5.1864      2.00000
    166      -5.1863      2.00000
    167      -5.0951      2.00000
    168      -5.0926      2.00000
    169      -4.9835      2.00000
    170      -4.9825      2.00000
    171      -4.9564      2.00000
    172      -4.9471      2.00000
    173      -4.8835      2.00000
    174      -4.7669      2.00000
    175      -4.7630      2.00000
    176      -4.6142      2.00000
    177      -4.6041      2.00000
    178      -4.5425      2.00000
    179      -4.5035      2.00000
    180      -4.4585      2.00000
    181      -2.4581      0.00000
    182      -2.4516      0.00000
    183      -2.3898      0.00000
    184      -2.3689      0.00000
    185      -2.3030      0.00000
    186      -2.2812      0.00000
    187      -2.2743      0.00000
    188      -2.2395      0.00000
    189      -2.1986      0.00000
    190      -2.1397      0.00000
    191      -2.1177      0.00000
    192      -2.0961      0.00000
    193      -2.0323      0.00000
    194      -2.0261      0.00000
    195      -2.0043      0.00000
    196      -1.9851      0.00000
    197      -1.9777      0.00000
    198      -1.9774      0.00000
    199      -1.9670      0.00000
    200      -1.9517      0.00000
    201      -1.9201      0.00000
    202      -1.9080      0.00000
    203      -1.8844      0.00000
    204      -1.8775      0.00000
    205      -1.8701      0.00000
    206      -1.8455      0.00000
    207      -1.8223      0.00000
    208      -1.8058      0.00000
[...]
  Direction    XX          YY          ZZ          XY          YZ          ZX
  --------------------------------------------------------------------------------------
  Alpha Z   143.63856   143.63856   143.63856
  Ewald  211596.43145211596.42675************     0.00000    -0.00000    -0.00000
  Hartree212779.70512212779.68018************    -0.00000     0.00000    -0.00000
  E(xc)   -1395.22608 -1395.23339 -1407.76871    -0.00000     0.00000     0.00000
  Local  ************************429299.97664     0.00000     0.00000     0.00000
  n-local  2584.29720  2584.30720  2686.46977     0.00039    -0.00000    -0.00000
  augment  -549.21317  -549.19800  -569.22327     0.00000    -0.00002    -0.00000
  Kinetic  4766.25949  4766.26125  4813.79245     0.00008    -0.00001     0.00000
  Fock        0.00000     0.00000     0.00000     0.00000     0.00000     0.00000
  -------------------------------------------------------------------------------------
  Total      -4.67265    -4.70678    -0.45474     0.00000     0.00000     0.00000
  in kB      -0.88767    -0.89415    -0.08639     0.00000     0.00000     0.00000
  external pressure =       -0.62 kB  Pullay stress =        0.00 kB


 VOLUME and BASIS-vectors are now :
 -----------------------------------------------------------------------------
  energy-cutoff  :      400.00
  volume of cell :     8433.81
      direct lattice vectors                 reciprocal lattice vectors
     3.190000000  0.000000000  0.000000000     0.313479624  0.000000000  0.000000000
     0.000000000 55.252420761  0.000000000     0.000000000  0.018098755  0.000000000
     0.000000000  0.000000000 47.850000000     0.000000000  0.000000000  0.020898642

  length of vectors
     3.190000000 55.252420761 47.850000000     0.313479624  0.018098755  0.020898642


 FORCES acting on ions
    electron-ion (+dipol)            ewald-force                    non-local-force                 convergence-correction
 -----------------------------------------------------------------------------------------------
   0.390E-14 0.368E+00 0.344E-05   -.936E-14 -.385E+00 -.603E-11   0.000E+00 0.255E-01 0.000E+00   0.148E-14 -.793E-03 0.150E-10
   0.296E-14 0.330E-01 0.359E-05   -.907E-14 -.330E-01 -.110E-10   0.000E+00 0.389E-02 0.000E+00   0.105E-14 -.205E-02 0.395E-09
   -.189E-14 0.553E-02 0.360E-05   0.304E-14 -.447E-02 -.385E-11   0.000E+00 0.141E-02 0.000E+00   0.144E-14 -.228E-02 0.116E-09
   -.113E-14 -.148E-01 0.360E-05   0.729E-14 0.129E-01 -.299E-10   0.000E+00 -.143E-02 0.000E+00   0.131E-14 0.292E-02 0.114E-10
   0.254E-14 -.815E-01 0.357E-05   0.880E-15 0.973E-01 -.120E-10   0.000E+00 -.144E-02 0.000E+00   0.163E-14 0.208E-02 0.617E-09
   0.163E-13 0.133E+00 0.358E-05   0.135E-14 -.145E+00 -.274E-10   0.000E+00 0.112E-01 0.000E+00   -.317E-15 -.139E-01 0.304E-11
   0.158E-13 0.100E-01 0.359E-05   -.161E-14 -.135E-01 -.263E-10   0.000E+00 0.224E-02 0.000E+00   -.848E-15 0.162E-02 0.149E-09
   0.161E-13 -.684E-02 0.361E-05   0.229E-14 0.382E-02 -.727E-11   0.000E+00 -.181E-03 0.000E+00   -.417E-15 0.303E-02 0.217E-09
   0.122E-13 -.274E-01 0.360E-05   0.208E-13 0.353E-01 0.248E-11   0.000E+00 -.396E-02 0.000E+00   -.378E-15 -.588E-02 0.137E-10
   0.154E-13 -.755E+00 0.344E-05   0.111E-13 0.623E+00 -.873E-11   0.000E+00 -.208E-01 0.000E+00   -.375E-15 0.123E-01 0.307E-09
   -.902E-16 -.405E+00 0.220E-05   -.432E-15 0.437E+00 -.209E-10   0.000E+00 -.186E-01 0.000E+00   0.895E-15 -.480E-03 -.347E-09
   0.341E-14 -.357E-01 0.196E-05   0.378E-14 0.362E-01 -.853E-11   0.000E+00 -.232E-02 0.000E+00   0.101E-14 -.133E-03 0.324E-10
   0.402E-14 -.339E-02 0.195E-05   0.752E-14 0.421E-02 -.106E-11   0.000E+00 -.380E-04 0.000E+00   0.922E-15 -.947E-03 0.454E-10
   0.341E-14 0.111E-01 0.196E-05   -.329E-15 -.145E-01 -.131E-10   0.000E+00 0.195E-02 0.000E+00   0.105E-14 0.141E-02 0.112E-09
   0.524E-14 0.132E+00 0.201E-05   0.112E-13 -.149E+00 -.511E-11   0.000E+00 -.335E-02 0.000E+00   0.117E-14 0.588E-03 0.339E-09
   0.667E-14 -.141E+00 0.201E-05   0.570E-14 0.168E+00 -.115E-10   0.000E+00 -.404E-02 0.000E+00   -.417E-15 -.496E-02 0.535E-09
   0.943E-14 -.122E-01 0.197E-05   0.383E-14 0.142E-01 -.216E-10   0.000E+00 -.109E-02 0.000E+00   -.643E-15 -.166E-02 0.791E-10
   0.811E-14 0.318E-02 0.195E-05   -.127E-13 -.422E-02 -.167E-10   0.000E+00 0.108E-02 0.000E+00   -.361E-15 -.155E-03 0.395E-10
   0.903E-14 0.360E-01 0.196E-05   0.122E-13 -.410E-01 -.345E-10   0.000E+00 0.633E-02 0.000E+00   -.389E-15 0.130E-02 0.483E-10
   0.115E-13 0.762E+00 0.223E-05   -.141E-13 -.643E+00 -.160E-10   0.000E+00 0.635E-02 0.000E+00   -.282E-15 0.804E-02 0.554E-09
   -.599E-14 -.491E-01 -.636E+03   -.325E-16 0.491E-01 0.641E+03   0.000E+00 -.147E-02 -.469E+01   -.520E-15 0.412E-03 0.979E-03
   -.658E-14 -.491E-01 0.636E+03   0.906E-14 0.491E-01 -.641E+03   0.000E+00 -.147E-02 0.469E+01   -.157E-14 0.412E-03 -.979E-03
   -.593E-14 -.532E-02 -.636E+03   -.113E-13 0.689E-02 0.641E+03   0.000E+00 -.292E-03 -.469E+01   -.585E-15 -.113E-02 0.171E-03
   -.324E-14 -.532E-02 0.636E+03   0.585E-14 0.689E-02 -.641E+03   0.000E+00 -.292E-03 0.469E+01   -.145E-14 -.113E-02 -.171E-03
   -.655E-14 0.951E-02 -.636E+03   0.343E-15 -.104E-01 0.641E+03   0.000E+00 0.260E-03 -.469E+01   -.832E-15 0.628E-03 0.699E-03
   -.267E-14 0.951E-02 0.636E+03   -.362E-14 -.104E-01 -.641E+03   0.000E+00 0.260E-03 0.469E+01   -.123E-14 0.628E-03 -.699E-03
   -.509E-14 0.616E-01 -.636E+03   -.232E-14 -.629E-01 0.641E+03   0.000E+00 0.234E-02 -.469E+01   -.578E-15 0.585E-04 0.129E-02
   -.317E-14 0.616E-01 0.636E+03   -.193E-13 -.629E-01 -.641E+03   0.000E+00 0.234E-02 0.469E+01   -.124E-14 0.585E-04 -.129E-02
   -.487E-14 0.119E+00 -.636E+03   -.215E-14 -.169E+00 0.640E+03   0.000E+00 -.241E-01 -.473E+01   -.622E-15 0.771E-02 -.881E-02
   -.200E-14 0.119E+00 0.636E+03   0.123E-14 -.169E+00 -.640E+03   0.000E+00 -.241E-01 0.473E+01   -.131E-14 0.771E-02 0.881E-02
   -.425E-14 0.506E-01 -.636E+03   0.361E-15 -.444E-01 0.640E+03   0.000E+00 0.105E-02 -.475E+01   -.235E-15 -.611E-02 0.124E-01
   -.236E-14 0.506E-01 0.636E+03   -.519E-14 -.444E-01 -.640E+03   0.000E+00 0.105E-02 0.475E+01   -.135E-14 -.611E-02 -.124E-01
   -.747E-14 0.864E-02 -.636E+03   -.159E-13 -.658E-02 0.641E+03   0.000E+00 -.301E-04 -.475E+01   -.708E-15 -.209E-02 0.594E-02
   -.302E-14 0.864E-02 0.636E+03   -.117E-13 -.658E-02 -.641E+03   0.000E+00 -.301E-04 0.475E+01   -.136E-14 -.209E-02 -.594E-02
   -.561E-14 -.140E-01 -.636E+03   -.723E-14 0.931E-02 0.641E+03   0.000E+00 -.224E-03 -.475E+01   -.753E-15 0.493E-02 0.165E-02
   -.364E-14 -.140E-01 0.636E+03   -.109E-13 0.931E-02 -.641E+03   0.000E+00 -.224E-03 0.475E+01   -.142E-14 0.493E-02 -.165E-02
   -.552E-14 -.497E-01 -.636E+03   -.208E-13 0.539E-01 0.641E+03   0.000E+00 -.527E-03 -.475E+01   -.661E-15 -.444E-02 0.144E-01
   -.476E-14 -.497E-01 0.636E+03   -.735E-14 0.539E-01 -.641E+03   0.000E+00 -.527E-03 0.475E+01   -.120E-14 -.444E-02 -.144E-01
   -.569E-14 -.139E+00 -.636E+03   -.691E-14 0.174E+00 0.641E+03   0.000E+00 0.183E-01 -.471E+01   -.239E-15 0.508E-02 -.430E-02
   -.586E-14 -.139E+00 0.636E+03   -.869E-14 0.174E+00 -.641E+03   0.000E+00 0.183E-01 0.471E+01   -.123E-14 0.508E-02 0.430E-02
   0.202E-14 -.835E-01 -.636E+03   -.129E-13 0.110E+00 0.641E+03   0.000E+00 -.124E-01 -.470E+01   0.530E-15 -.671E-02 -.762E-03
   -.103E-14 -.835E-01 0.636E+03   -.269E-13 0.110E+00 -.641E+03   0.000E+00 -.124E-01 0.470E+01   0.141E-14 -.671E-02 0.762E-03
   0.200E-14 -.169E-01 -.636E+03   -.147E-13 0.189E-01 0.641E+03   0.000E+00 -.472E-03 -.469E+01   0.567E-15 -.163E-02 -.103E-03
   -.147E-15 -.169E-01 0.636E+03   -.495E-14 0.189E-01 -.641E+03   0.000E+00 -.472E-03 0.469E+01   0.122E-14 -.163E-02 0.103E-03
   0.189E-14 0.176E-02 -.636E+03   -.955E-15 -.136E-02 0.641E+03   0.000E+00 -.304E-04 -.469E+01   0.384E-15 -.314E-03 0.283E-03
   -.171E-15 0.176E-02 0.636E+03   -.847E-14 -.136E-02 -.641E+03   0.000E+00 -.304E-04 0.469E+01   0.955E-15 -.314E-03 -.283E-03
   0.202E-14 0.234E-01 -.636E+03   0.169E-14 -.260E-01 0.641E+03   0.000E+00 0.206E-03 -.469E+01   0.475E-15 0.196E-02 0.129E-03
   0.568E-15 0.234E-01 0.636E+03   -.815E-14 -.260E-01 -.641E+03   0.000E+00 0.206E-03 0.469E+01   0.135E-14 0.196E-02 -.129E-03
   0.154E-14 0.144E+00 -.636E+03   -.420E-14 -.145E+00 0.641E+03   0.000E+00 0.536E-02 -.469E+01   0.668E-15 0.287E-02 0.194E-02
   -.956E-15 0.144E+00 0.636E+03   -.544E-15 -.145E+00 -.641E+03   0.000E+00 0.536E-02 0.469E+01   0.851E-15 0.287E-02 -.194E-02
   -.331E-15 0.889E-01 -.636E+03   -.476E-14 -.100E+00 0.640E+03   0.000E+00 0.177E-01 -.474E+01   0.710E-15 -.127E-01 -.116E-02
   0.298E-15 0.889E-01 0.636E+03   0.626E-14 -.100E+00 -.640E+03   0.000E+00 0.177E-01 0.474E+01   0.134E-14 -.127E-01 0.116E-02
   0.132E-14 0.145E-01 -.636E+03   0.104E-15 -.176E-01 0.641E+03   0.000E+00 0.172E-03 -.475E+01   0.114E-14 0.278E-02 0.959E-02
   -.185E-15 0.145E-01 0.636E+03   0.344E-14 -.176E-01 -.641E+03   0.000E+00 0.172E-03 0.475E+01   0.132E-14 0.278E-02 -.959E-02
   0.153E-14 -.104E-02 -.636E+03   0.203E-14 0.107E-02 0.641E+03   0.000E+00 0.437E-04 -.475E+01   0.448E-15 -.562E-04 0.601E-02
   0.142E-15 -.104E-02 0.636E+03   -.114E-14 0.107E-02 -.641E+03   0.000E+00 0.437E-04 0.475E+01   0.111E-14 -.562E-04 -.601E-02
   -.143E-14 -.206E-01 -.636E+03   -.825E-14 0.230E-01 0.641E+03   0.000E+00 0.234E-03 -.475E+01   0.558E-15 -.207E-02 0.320E-02
   -.959E-15 -.206E-01 0.636E+03   -.209E-14 0.230E-01 -.641E+03   0.000E+00 0.234E-03 0.475E+01   0.152E-14 -.207E-02 -.320E-02
   -.134E-14 -.142E+00 -.636E+03   0.231E-14 0.137E+00 0.640E+03   0.000E+00 -.137E-01 -.474E+01   0.273E-15 0.109E-01 0.883E-02
   -.165E-14 -.142E+00 0.636E+03   0.144E-15 0.137E+00 -.640E+03   0.000E+00 -.137E-01 0.474E+01   0.944E-15 0.109E-01 -.883E-02
 -----------------------------------------------------------------------------------------------
   0.538E-13 0.123E-01 0.176E-03   -.155E-12 0.219E-12 -.341E-12   0.000E+00 -.123E-01 0.000E+00   0.622E-14 -.165E-04 -.229E-08
 
 
 POSITION                                       TOTAL-FORCE (eV/Angst)
 -----------------------------------------------------------------------------------
      0.00000     27.62621      1.56705         0.000000      0.008022      0.000000
      0.00000     33.15145      1.56705         0.000000      0.001905      0.000000
      0.00000     38.67669      1.56705         0.000000      0.000189      0.000000
      0.00000     44.20194      1.56705         0.000000     -0.000429      0.000000
      0.00000     49.72718      1.56705         0.000000      0.016410      0.000000
      1.59500     30.38883      1.56705         0.000000     -0.014209      0.000000
      1.59500     35.91407      1.56705         0.000000      0.000392      0.000000
      1.59500     41.43932      1.56705         0.000000     -0.000172      0.000000
      1.59500     46.96456      1.56705         0.000000     -0.002009      0.000000
      1.59500     52.48980      1.56705         0.000000     -0.140055      0.000000
      0.00000      0.00000      1.56705         0.000000      0.012771      0.000000
      0.00000      5.52524      1.56705         0.000000     -0.001937      0.000000
      0.00000     11.05048      1.56705         0.000000     -0.000171      0.000000
      0.00000     16.57573      1.56705         0.000000     -0.000028      0.000000
      0.00000     22.10097      1.56705         0.000000     -0.019913      0.000000
      1.59500      2.76262      1.56705         0.000000      0.018172      0.000000
      1.59500      8.28786      1.56705         0.000000     -0.000736      0.000000
      1.59500     13.81311      1.56705         0.000000     -0.000116      0.000000
      1.59500     19.33835      1.56705         0.000000      0.002685      0.000000
      1.59500     24.86359      1.56705         0.000000      0.133594      0.000000
      1.59500      4.60437      3.13409         0.000000     -0.001083      0.000041
      1.59500      4.60437      0.00000         0.000000     -0.001083     -0.000041
      1.59500     10.12961      3.13399         0.000000      0.000143     -0.000040
      1.59500     10.12961      0.00011         0.000000      0.000143      0.000040
      1.59500     15.65485      3.13399         0.000000      0.000025     -0.000089
      1.59500     15.65485      0.00010         0.000000      0.000025      0.000089
      1.59500     21.18009      3.13402         0.000000      0.001067     -0.000033
      1.59500     21.18009      0.00008         0.000000      0.001067      0.000033
      1.59500     26.70534      3.12986         0.000000     -0.066671      0.000097
      1.59500     26.70534      0.00423         0.000000     -0.066671     -0.000097
      1.59500     32.23058      3.12817         0.000000      0.001105     -0.000473
      1.59500     32.23058      0.00593         0.000000      0.001105      0.000473
      1.59500     37.75582      3.12826         0.000000     -0.000065     -0.000501
      1.59500     37.75582      0.00584         0.000000     -0.000065      0.000501
      1.59500     43.28106      3.12825         0.000000      0.000064     -0.000326
      1.59500     43.28106      0.00584         0.000000      0.000064      0.000326
      1.59500     48.80631      3.12824         0.000000     -0.000759     -0.000497
      1.59500     48.80631      0.00585         0.000000     -0.000759      0.000497
      1.59500     54.33155      3.13195         0.000000      0.057466      0.000593
      1.59500     54.33155      0.00215         0.000000      0.057466     -0.000593
      0.00000      1.84175      3.13374         0.000000      0.007663      0.000157
      0.00000      1.84175      0.00035         0.000000      0.007663     -0.000157
      0.00000      7.36699      3.13399         0.000000     -0.000109     -0.000056
      0.00000      7.36699      0.00010         0.000000     -0.000109      0.000056
      0.00000     12.89223      3.13399         0.000000      0.000057     -0.000091
      0.00000     12.89223      0.00011         0.000000      0.000057      0.000091
      0.00000     18.41747      3.13400         0.000000     -0.000417     -0.000080
      0.00000     18.41747      0.00009         0.000000     -0.000417      0.000080
      0.00000     23.94272      3.13376         0.000000      0.007043      0.000512
      0.00000     23.94272      0.00034         0.000000      0.007043     -0.000512
      0.00000     29.46796      3.12845         0.000000     -0.006132     -0.000410
      0.00000     29.46796      0.00564         0.000000     -0.006132      0.000410
      0.00000     34.99320      3.12825         0.000000     -0.000089     -0.000357
      0.00000     34.99320      0.00584         0.000000     -0.000089      0.000357
      0.00000     40.51844      3.12825         0.000000      0.000027     -0.000549
      0.00000     40.51844      0.00584         0.000000      0.000027      0.000549
      0.00000     46.04368      3.12824         0.000000      0.000551     -0.000399
      0.00000     46.04368      0.00585         0.000000      0.000551      0.000399
      0.00000     51.56893      3.12815         0.000000     -0.007070     -0.001013
      0.00000     51.56893      0.00594         0.000000     -0.007070      0.001013
 -----------------------------------------------------------------------------------
    total drift:                               -0.000000      0.000004      0.000176


--------------------------------------------------------------------------------------------------------



  FREE ENERGIE OF THE ION-ELECTRON SYSTEM (eV)
  ---------------------------------------------------
  free  energy   TOTEN  =      -455.10266037 eV

  energy  without entropy=     -455.10266037  energy(sigma->0) =     -455.10266037
 


--------------------------------------------------------------------------------------------------------


    POTLOK:  cpu time    7.5975: real time    7.6378


--------------------------------------------------------------------------------------------------------


 writing wavefunctions
     LOOP+:  cpu time**********: real time**********
    4ORBIT:  cpu time    0.0000: real time    0.0000
 


 total charge     
 
# of ion       s       p       d       tot
------------------------------------------
    1        0.413   0.595   4.391   5.399
    2        0.415   0.595   4.387   5.396
    3        0.415   0.595   4.386   5.396
    4        0.415   0.595   4.386   5.395
    5        0.415   0.595   4.386   5.396
    6        0.415   0.595   4.386   5.395
    7        0.415   0.595   4.386   5.396
    8        0.415   0.595   4.386   5.396
    9        0.415   0.595   4.386   5.396
   10        0.413   0.595   4.392   5.400
   11        0.562   0.698   4.214   5.474
   12        0.560   0.698   4.220   5.478
   13        0.560   0.698   4.221   5.478
   14        0.560   0.698   4.221   5.478
   15        0.560   0.698   4.222   5.479
   16        0.560   0.698   4.221   5.479
   17        0.560   0.698   4.221   5.478
   18        0.560   0.698   4.221   5.478
   19        0.560   0.698   4.220   5.478
   20        0.562   0.698   4.214   5.474
   21        1.359   2.356   0.000   3.714
   22        1.359   2.356   0.000   3.714
   23        1.359   2.356   0.000   3.714
   24        1.359   2.356   0.000   3.714
   25        1.359   2.356   0.000   3.714
   26        1.359   2.356   0.000   3.714
   27        1.359   2.356   0.000   3.714
   28        1.359   2.356   0.000   3.714
   29        1.362   2.339   0.000   3.701
   30        1.362   2.339   0.000   3.701
   31        1.364   2.329   0.000   3.693
   32        1.364   2.329   0.000   3.693
   33        1.364   2.329   0.000   3.694
   34        1.364   2.329   0.000   3.694
   35        1.364   2.330   0.000   3.694
   36        1.364   2.330   0.000   3.694
   37        1.364   2.329   0.000   3.693
   38        1.364   2.329   0.000   3.693
   39        1.361   2.347   0.000   3.708
   40        1.361   2.347   0.000   3.708
   41        1.359   2.355   0.000   3.714
   42        1.359   2.355   0.000   3.714
   43        1.359   2.356   0.000   3.714
   44        1.359   2.356   0.000   3.714
   45        1.359   2.356   0.000   3.714
   46        1.359   2.356   0.000   3.714
   47        1.359   2.356   0.000   3.714
   48        1.359   2.356   0.000   3.714
   49        1.359   2.355   0.000   3.714
   50        1.359   2.355   0.000   3.714
   51        1.364   2.330   0.000   3.694
   52        1.364   2.330   0.000   3.694
   53        1.364   2.329   0.000   3.693
   54        1.364   2.329   0.000   3.693
   55        1.364   2.330   0.000   3.694
   56        1.364   2.330   0.000   3.694
   57        1.364   2.330   0.000   3.694
   58        1.364   2.330   0.000   3.694
   59        1.364   2.330   0.000   3.694
   60        1.364   2.330   0.000   3.694
--------------------------------------------------
tot         64.200 106.634  86.066 256.899
 

 total amount of memory used by VASP MPI-rank0  5630905. kBytes
=======================================================================

   base      :      30000. kBytes
   nonl-proj :     810453. kBytes
   fftplans  :     258919. kBytes
   grid      :     583695. kBytes
   one-center:        933. kBytes
   wavefun   :    3946905. kBytes
 
  
  
 General timing and accounting informations for this job:
 ========================================================
  
                  Total CPU time used (sec):   126130.008
                            User time (sec):   120958.766
                          System time (sec):     5171.244
                         Elapsed time (sec):   127097.974
  
                   Maximum memory used (kb):     6513548.
                   Average memory used (kb):           0.
  
                          Minor page faults:   1437908787
                          Major page faults:            5
                 Voluntary context switches:        24140
