 vasp.5.4.4.18Apr17-6-g9f103f2a35 (build Nov 28 2017 01:56:59) complex          
  
 executed on           IFC91_ompi date 2019.03.09  23:35:49
 running on   27 total cores
 distrk:  each k-point on    3 cores,    9 groups
 distr:  one band on NCORES_PER_BAND=   1 cores,    3 groups


--------------------------------------------------------------------------------------------------------


 INCAR:
 POTCAR:    PAW_PBE Mo 08Apr2002                  
 POTCAR:    PAW_PBE W 08Apr2002                   
 POTCAR:    PAW_PBE S 06Sep2000                   

 ----------------------------------------------------------------------------- 
|                                                                             |
|           W    W    AA    RRRRR   N    N  II  N    N   GGGG   !!!           |
|           W    W   A  A   R    R  NN   N  II  NN   N  G    G  !!!           |
|           W    W  A    A  R    R  N N  N  II  N N  N  G       !!!           |
|           W WW W  AAAAAA  RRRRR   N  N N  II  N  N N  G  GGG   !            |
|           WW  WW  A    A  R   R   N   NN  II  N   NN  G    G                |
|           W    W  A    A  R    R  N    N  II  N    N   GGGG   !!!           |
|                                                                             |
|      For optimal performance we recommend to set                            |
|        NCORE= 4 - approx SQRT( number of cores)                             |
|      NCORE specifies how many cores store one orbital (NPAR=cpu/NCORE).     |
|      This setting can  greatly improve the performance of VASP for DFT.     |
|      The default,   NCORE=1            might be grossly inefficient         |
|      on modern multi-core architectures or massively parallel machines.     |
|      Do your own testing !!!!                                               |
|      Unfortunately you need to use the default for GW and RPA calculations. |
|      (for HF NCORE is supported but not extensively tested yet)             |
|                                                                             |
 ----------------------------------------------------------------------------- 


 ----------------------------------------------------------------------------- 
|                                                                             |
|           W    W    AA    RRRRR   N    N  II  N    N   GGGG   !!!           |
|           W    W   A  A   R    R  NN   N  II  NN   N  G    G  !!!           |
|           W    W  A    A  R    R  N N  N  II  N N  N  G       !!!           |
|           W WW W  AAAAAA  RRRRR   N  N N  II  N  N N  G  GGG   !            |
|           WW  WW  A    A  R   R   N   NN  II  N   NN  G    G                |
|           W    W  A    A  R    R  N    N  II  N    N   GGGG   !!!           |
|                                                                             |
|      You have enabled k-point parallelism (KPAR>1).                         |
|      This developmental code was originally  written by Paul Kent at ORNL,  |
|      and carefully double checked in Vienna.                                |
|      GW as well as linear response parallelism added by Martijn Marsman     |
|      and Georg Kresse.                                                      |
|      Carefully verify results versus KPAR=1.                                |
|      Report problems to Paul Kent and Vienna.                               |
|                                                                             |
 ----------------------------------------------------------------------------- 

 POTCAR:    PAW_PBE Mo 08Apr2002                  
   VRHFIN =Mo: 4p5s4d                                                           
   LEXCH  = PE                                                                  
   EATOM  =   217.5176 eV,   15.9871 Ry                                         
                                                                                
   TITEL  = PAW_PBE Mo 08Apr2002                                                
   LULTRA =        F    use ultrasoft PP ?                                      
   IUNSCR =        1    unscreen: 0-lin 1-nonlin 2-no                           
   RPACOR =    2.200    partial core radius                                     
   POMASS =   95.940; ZVAL   =    6.000    mass and valenz                      
   RCORE  =    2.750    outmost cutoff radius                                   
   RWIGS  =    2.750; RWIGS  =    1.455    wigner-seitz radius (au A)           
   ENMAX  =  224.584; ENMIN  =  168.438 eV                                      
   RCLOC  =    2.111    cutoff for local pot                                    
   LCOR   =        T    correct aug charges                                     
   LPAW   =        T    paw PP                                                  
   EAUG   =  345.278                                                            
   DEXC   =    0.000                                                            
   RMAX   =    2.821    core radius for proj-oper                               
   RAUG   =    1.300    factor for augmentation sphere                          
   RDEP   =    2.815    radius for radial grids                                 
   RDEPT  =    2.211    core radius for aug-charge                              
                                                                                
   Atomic configuration                                                         
   12 entries                                                                   
     n  l   j            E        occ.                                          
     1  0  0.50    -19819.0341   2.0000                                         
     2  0  0.50     -2799.0127   2.0000                                         
     2  1  1.50     -2502.0276   6.0000                                         
     3  0  0.50      -476.4448   2.0000                                         
     3  1  1.50      -379.1496   6.0000                                         
     3  2  2.50      -220.9367  10.0000                                         
     4  0  0.50       -64.3378   2.0000                                         
     4  1  1.50       -38.4773   6.0000                                         
     4  2  2.50        -3.7535   5.0000                                         
     5  0  0.50        -4.0862   1.0000                                         
     5  1  0.50        -2.7701   0.0000                                         
     4  3  2.50        -1.3606   0.0000                                         
   Description                                                                  
     l       E           TYP  RCUT    TYP  RCUT                                 
     2     -3.7534765     23  2.500                                             
     2     -5.1140591     23  2.500                                             
     0     -4.0861560     23  2.600                                             
     0     13.6058260     23  2.600                                             
     1      5.4423304     23  2.750                                             
     1     27.2116520     23  2.750                                             
  local pseudopotential read in
  partial core-charges read in
  partial kinetic energy density read in
  atomic valenz-charges read in
  non local Contribution for L=           2  read in
    real space projection operators read in
  non local Contribution for L=           2  read in
    real space projection operators read in
  non local Contribution for L=           0  read in
    real space projection operators read in
  non local Contribution for L=           0  read in
    real space projection operators read in
  non local Contribution for L=           1  read in
    real space projection operators read in
  non local Contribution for L=           1  read in
    real space projection operators read in
    PAW grid and wavefunctions read in
 
   number of l-projection  operators is LMAX  =           6
   number of lm-projection operators is LMMAX =          18
 
 POTCAR:    PAW_PBE W 08Apr2002                   
   VRHFIN =W : 6s5d                                                             
   LEXCH  = PE                                                                  
   EATOM  =   204.6103 eV,   15.0384 Ry                                         
                                                                                
   TITEL  = PAW_PBE W 08Apr2002                                                 
   LULTRA =        F    use ultrasoft PP ?                                      
   IUNSCR =        1    unscreen: 0-lin 1-nonlin 2-no                           
   RPACOR =    2.330    partial core radius                                     
   POMASS =  183.850; ZVAL   =    6.000    mass and valenz                      
   RCORE  =    2.750    outmost cutoff radius                                   
   RWIGS  =    2.750; RWIGS  =    1.455    wigner-seitz radius (au A)           
   ENMAX  =  223.057; ENMIN  =  167.293 eV                                      
   RCLOC  =    2.147    cutoff for local pot                                    
   LCOR   =        T    correct aug charges                                     
   LPAW   =        T    paw PP                                                  
   EAUG   =  373.438                                                            
   DEXC   =    0.000                                                            
   RMAX   =    2.801    core radius for proj-oper                               
   RAUG   =    1.300    factor for augmentation sphere                          
   RDEP   =    2.886    radius for radial grids                                 
   RDEPT  =    2.230    core radius for aug-charge                              
                                                                                
   Atomic configuration                                                         
   16 entries                                                                   
     n  l   j            E        occ.                                          
     1  0  0.50    -69465.5836   2.0000                                         
     2  0  0.50    -11986.2642   2.0000                                         
     2  1  1.50    -10479.8616   6.0000                                         
     3  0  0.50     -2759.0758   2.0000                                         
     3  1  1.50     -2313.1857   6.0000                                         
     3  2  2.50     -1801.1185  10.0000                                         
     4  0  0.50      -567.6791   2.0000                                         
     4  1  1.50      -421.4694   6.0000                                         
     4  2  2.50      -236.3473  10.0000                                         
     4  3  3.50       -31.2666  14.0000                                         
     5  0  0.50       -77.1085   2.0000                                         
     5  1  1.50       -41.3856   6.0000                                         
     5  2  2.50        -3.3185   5.0000                                         
     6  0  0.50        -5.1438   1.0000                                         
     6  1  0.50        -3.8096   0.0000                                         
     5  3  2.50        -1.3606   0.0000                                         
   Description                                                                  
     l       E           TYP  RCUT    TYP  RCUT                                 
     2     -3.3185288     23  2.500                                             
     2     -1.5965414     23  2.500                                             
     0     -5.1438054     23  2.500                                             
     0      4.9117504     23  2.500                                             
     1      2.7211652     23  2.750                                             
     1     27.2116520     23  2.750                                             
  local pseudopotential read in
  partial core-charges read in
  partial kinetic energy density read in
  atomic valenz-charges read in
  non local Contribution for L=           2  read in
    real space projection operators read in
  non local Contribution for L=           2  read in
    real space projection operators read in
  non local Contribution for L=           0  read in
    real space projection operators read in
  non local Contribution for L=           0  read in
    real space projection operators read in
  non local Contribution for L=           1  read in
    real space projection operators read in
  non local Contribution for L=           1  read in
    real space projection operators read in
    PAW grid and wavefunctions read in
 
   number of l-projection  operators is LMAX  =           6
   number of lm-projection operators is LMMAX =          18
 
 POTCAR:    PAW_PBE S 06Sep2000                   
   VRHFIN =S : s2p4                                                             
   LEXCH  = PE                                                                  
   EATOM  =   276.8230 eV,   20.3459 Ry                                         
                                                                                
   TITEL  = PAW_PBE S 06Sep2000                                                 
   LULTRA =        F    use ultrasoft PP ?                                      
   IUNSCR =        1    unscreen: 0-lin 1-nonlin 2-no                           
   RPACOR =    1.500    partial core radius                                     
   POMASS =   32.066; ZVAL   =    6.000    mass and valenz                      
   RCORE  =    1.900    outmost cutoff radius                                   
   RWIGS  =    2.200; RWIGS  =    1.164    wigner-seitz radius (au A)           
   ENMAX  =  258.689; ENMIN  =  194.016 eV                                      
   ICORE  =        2    local potential                                         
   LCOR   =        T    correct aug charges                                     
   LPAW   =        T    paw PP                                                  
   EAUG   =  335.092                                                            
   DEXC   =    0.000                                                            
   RMAX   =    1.942    core radius for proj-oper                               
   RAUG   =    1.300    factor for augmentation sphere                          
   RDEP   =    1.954    radius for radial grids                                 
   RDEPT  =    1.744    core radius for aug-charge                              
                                                                                
   Atomic configuration                                                         
    6 entries                                                                   
     n  l   j            E        occ.                                          
     1  0  0.50     -2405.8406   2.0000                                         
     2  0  0.50      -211.7007   2.0000                                         
     2  1  1.50      -156.4958   6.0000                                         
     3  0  0.50       -17.2562   2.0000                                         
     3  1  0.50        -7.0085   4.0000                                         
     3  2  1.50        -6.8029   0.0000                                         
   Description                                                                  
     l       E           TYP  RCUT    TYP  RCUT                                 
     0    -17.2561641     23  1.900                                             
     0    -15.8743224     23  1.900                                             
     1     -7.0085400     23  1.900                                             
     1     -2.7779785     23  1.900                                             
     2     -6.8029130     23  1.900                                             
  local pseudopotential read in
  partial core-charges read in
  partial kinetic energy density read in
  atomic valenz-charges read in
  non local Contribution for L=           0  read in
    real space projection operators read in
  non local Contribution for L=           0  read in
    real space projection operators read in
  non local Contribution for L=           1  read in
    real space projection operators read in
  non local Contribution for L=           1  read in
    real space projection operators read in
    PAW grid and wavefunctions read in
 
   number of l-projection  operators is LMAX  =           4
   number of lm-projection operators is LMMAX =           8
 
  PAW_PBE Mo 08Apr2002                  :
 energy of atom  1       EATOM= -217.5176
 kinetic energy error for atom=    0.0025 (will be added to EATOM!!)
  PAW_PBE W 08Apr2002                   :
 energy of atom  2       EATOM= -204.6103
 kinetic energy error for atom=    0.0024 (will be added to EATOM!!)
  PAW_PBE S 06Sep2000                   :
 energy of atom  3       EATOM= -276.8230
 kinetic energy error for atom=    0.0046 (will be added to EATOM!!)
 
 
 POSCAR: 09-Mar-2019 22:12:06                    
  positions in direct lattice
  velocities in cartesian coordinates
 exchange correlation table for  LEXCH =        8
   RHO(1)=    0.500       N(1)  =     2000
   RHO(2)=  100.500       N(2)  =     4000
 


--------------------------------------------------------------------------------------------------------


 ion  position               nearest neighbor table
   1  0.000  0.000  0.021-   3 2.41   3 2.41   3 2.41   4 2.41   4 2.41   4 2.41
   2  0.667  0.333  0.176-   6 2.42   6 2.42   6 2.42   5 2.42   5 2.42   5 2.42
   3  0.667  0.333  0.989-   1 2.41   1 2.41   1 2.41
   4  0.667  0.333  0.054-   1 2.41   1 2.41   1 2.41
   5  0.000  0.000  0.143-   2 2.42   2 2.42   2 2.42
   6  0.000  0.000  0.209-   2 2.42   2 2.42   2 2.42
 
  LATTYP: Found a hexagonal cell.
 ALAT       =     3.1900000000
 C/A-ratio  =    15.0000000000
  
  Lattice vectors:
  
 A1 = (   1.5950000000,  -2.7626210381,   0.0000000000)
 A2 = (   1.5950000000,   2.7626210381,   0.0000000000)
 A3 = (   0.0000000000,   0.0000000000,  47.8500000000)


Analysis of symmetry for initial positions (statically):
=====================================================================
 Subroutine PRICEL returns:
 Original cell was already a primitive cell.
 

 Routine SETGRP: Setting up the symmetry group for a 
 hexagonal supercell.


 Subroutine GETGRP returns: Found  2 space group operations
 (whereof  2 operations were pure point group operations)
 out of a pool of 24 trial point group operations.


The static configuration has the point symmetry C_1h.


Analysis of symmetry for dynamics (positions and initial velocities):
=====================================================================
 Subroutine PRICEL returns:
 Original cell was already a primitive cell.
 

 Routine SETGRP: Setting up the symmetry group for a 
 hexagonal supercell.


 Subroutine GETGRP returns: Found  2 space group operations
 (whereof  2 operations were pure point group operations)
 out of a pool of 24 trial point group operations.


The dynamic configuration has the point symmetry C_1h.


Analysis of constrained symmetry for selective dynamics:
=====================================================================
 Subroutine PRICEL returns:
 Original cell was already a primitive cell.
 

 Routine SETGRP: Setting up the symmetry group for a 
 hexagonal supercell.


 Subroutine GETGRP returns: Found  2 space group operations
 (whereof  2 operations were pure point group operations)
 out of a pool of 24 trial point group operations.


The constrained configuration has the point symmetry C_1h.


 Subroutine INISYM returns: Found  2 space group operations
 (whereof  2 operations are pure point group operations),
 and found     1 'primitive' translations

 
 
 KPOINTS: mos2 mono                               

Automatic generation of k-mesh.
Space group operators:
 irot       det(A)        alpha          n_x          n_y          n_z        tau_x        tau_y        tau_z
    1     1.000000     0.000001     1.000000     0.000000     0.000000     0.000000     0.000000     0.000000
    2    -1.000000   180.000000    -0.500000    -0.866025     0.000000     0.000000     0.000000     0.000000
 
 Subroutine IBZKPT returns following result:
 ===========================================
 
 Found     25 irreducible k-points:
 
 Following reciprocal coordinates:
            Coordinates               Weight
  0.000000  0.000000  0.000000      1.000000
  0.111111 -0.000000  0.000000      2.000000
  0.222222  0.000000  0.000000      2.000000
  0.333333  0.000000  0.000000      2.000000
  0.444444  0.000000  0.000000      2.000000
 -0.000000  0.111111  0.000000      4.000000
  0.111111  0.111111  0.000000      4.000000
  0.222222  0.111111  0.000000      4.000000
  0.333333  0.111111  0.000000      4.000000
  0.444444  0.111111  0.000000      2.000000
  0.000000  0.222222  0.000000      4.000000
  0.111111  0.222222  0.000000      4.000000
  0.222222  0.222222  0.000000      4.000000
  0.333333  0.222222  0.000000      4.000000
 -0.111111  0.222222  0.000000      2.000000
  0.000000  0.333333  0.000000      4.000000
  0.111111  0.333333  0.000000      4.000000
  0.222222  0.333333  0.000000      4.000000
  0.333333  0.333333  0.000000      2.000000
 -0.222222  0.333333  0.000000      4.000000
  0.000000  0.444444  0.000000      4.000000
  0.111111  0.444444  0.000000      4.000000
  0.222222  0.444444  0.000000      4.000000
 -0.333333  0.444444  0.000000      4.000000
 -0.222222  0.444444  0.000000      2.000000
 
 Following cartesian coordinates:
            Coordinates               Weight
  0.000000  0.000000  0.000000      1.000000
  0.111111 -0.064150  0.000000      2.000000
  0.222222 -0.128300  0.000000      2.000000
  0.333333 -0.192450  0.000000      2.000000
  0.444444 -0.256600  0.000000      2.000000
  0.111111  0.064150  0.000000      4.000000
  0.222222  0.000000  0.000000      4.000000
  0.333333 -0.064150  0.000000      4.000000
  0.444444 -0.128300  0.000000      4.000000
  0.555556 -0.192450  0.000000      2.000000
  0.222222  0.128300  0.000000      4.000000
  0.333333  0.064150  0.000000      4.000000
  0.444444  0.000000  0.000000      4.000000
  0.555556 -0.064150  0.000000      4.000000
  0.111111  0.192450  0.000000      2.000000
  0.333333  0.192450  0.000000      4.000000
  0.444444  0.128300  0.000000      4.000000
  0.555556  0.064150  0.000000      4.000000
  0.666667  0.000000  0.000000      2.000000
  0.111111  0.320750  0.000000      4.000000
  0.444444  0.256600  0.000000      4.000000
  0.555556  0.192450  0.000000      4.000000
  0.666667  0.128300  0.000000      4.000000
  0.111111  0.449050  0.000000      4.000000
  0.222222  0.384900  0.000000      2.000000
 
 
 Subroutine IBZKPT_HF returns following result:
 ==============================================
 
 Found     81 k-points in 1st BZ
 the following     81 k-points will be used (e.g. in the exchange kernel)
 Following reciprocal coordinates:   # in IRBZ
  0.000000  0.000000  0.000000    0.01234568   1 t-inv F
  0.111111 -0.000000  0.000000    0.01234568   2 t-inv F
  0.222222  0.000000  0.000000    0.01234568   3 t-inv F
  0.333333  0.000000  0.000000    0.01234568   4 t-inv F
  0.444444  0.000000  0.000000    0.01234568   5 t-inv F
 -0.000000  0.111111  0.000000    0.01234568   6 t-inv F
  0.111111  0.111111  0.000000    0.01234568   7 t-inv F
  0.222222  0.111111  0.000000    0.01234568   8 t-inv F
  0.333333  0.111111  0.000000    0.01234568   9 t-inv F
  0.444444  0.111111  0.000000    0.01234568  10 t-inv F
  0.000000  0.222222  0.000000    0.01234568  11 t-inv F
  0.111111  0.222222  0.000000    0.01234568  12 t-inv F
  0.222222  0.222222  0.000000    0.01234568  13 t-inv F
  0.333333  0.222222  0.000000    0.01234568  14 t-inv F
 -0.111111  0.222222  0.000000    0.01234568  15 t-inv F
  0.000000  0.333333  0.000000    0.01234568  16 t-inv F
  0.111111  0.333333  0.000000    0.01234568  17 t-inv F
  0.222222  0.333333  0.000000    0.01234568  18 t-inv F
  0.333333  0.333333  0.000000    0.01234568  19 t-inv F
 -0.222222  0.333333  0.000000    0.01234568  20 t-inv F
  0.000000  0.444444  0.000000    0.01234568  21 t-inv F
  0.111111  0.444444  0.000000    0.01234568  22 t-inv F
  0.222222  0.444444  0.000000    0.01234568  23 t-inv F
 -0.333333  0.444444  0.000000    0.01234568  24 t-inv F
 -0.222222  0.444444  0.000000    0.01234568  25 t-inv F
  0.111111 -0.111111  0.000000    0.01234568   6 t-inv F
  0.222222 -0.111111  0.000000    0.01234568   7 t-inv F
  0.333333 -0.111111  0.000000    0.01234568   8 t-inv F
  0.444444 -0.111111  0.000000    0.01234568   9 t-inv F
  0.555556 -0.111111  0.000000    0.01234568  10 t-inv F
  0.222222 -0.222222  0.000000    0.01234568  11 t-inv F
  0.333333 -0.222222  0.000000    0.01234568  12 t-inv F
  0.444444 -0.222222  0.000000    0.01234568  13 t-inv F
  0.555556 -0.222222  0.000000    0.01234568  14 t-inv F
  0.111111 -0.222222  0.000000    0.01234568  15 t-inv F
  0.333333 -0.333333  0.000000    0.01234568  16 t-inv F
  0.444444 -0.333333  0.000000    0.01234568  17 t-inv F
  0.555556 -0.333333  0.000000    0.01234568  18 t-inv F
  0.666667 -0.333333  0.000000    0.01234568  19 t-inv F
  0.111111 -0.333333  0.000000    0.01234568  20 t-inv F
  0.444444 -0.444444  0.000000    0.01234568  21 t-inv F
  0.555556 -0.444444  0.000000    0.01234568  22 t-inv F
  0.666667 -0.444444  0.000000    0.01234568  23 t-inv F
  0.111111 -0.444444  0.000000    0.01234568  24 t-inv F
  0.222222 -0.444444  0.000000    0.01234568  25 t-inv F
 -0.111111  0.000000  0.000000    0.01234568   2 t-inv T
 -0.222222  0.000000  0.000000    0.01234568   3 t-inv T
 -0.333333 -0.000000  0.000000    0.01234568   4 t-inv T
 -0.444444  0.000000  0.000000    0.01234568   5 t-inv T
  0.000000 -0.111111  0.000000    0.01234568   6 t-inv T
 -0.111111  0.111111  0.000000    0.01234568   6 t-inv T
 -0.111111 -0.111111  0.000000    0.01234568   7 t-inv T
 -0.222222  0.111111  0.000000    0.01234568   7 t-inv T
 -0.222222 -0.111111  0.000000    0.01234568   8 t-inv T
 -0.333333  0.111111  0.000000    0.01234568   8 t-inv T
 -0.333333 -0.111111  0.000000    0.01234568   9 t-inv T
 -0.444444  0.111111  0.000000    0.01234568   9 t-inv T
  0.000000 -0.222222  0.000000    0.01234568  11 t-inv T
 -0.222222  0.222222  0.000000    0.01234568  11 t-inv T
 -0.111111 -0.222222  0.000000    0.01234568  12 t-inv T
 -0.333333  0.222222  0.000000    0.01234568  12 t-inv T
 -0.222222 -0.222222  0.000000    0.01234568  13 t-inv T
 -0.444444  0.222222  0.000000    0.01234568  13 t-inv T
 -0.333333 -0.222222  0.000000    0.01234568  14 t-inv T
 -0.555556  0.222222  0.000000    0.01234568  14 t-inv T
 -0.000000 -0.333333  0.000000    0.01234568  16 t-inv T
 -0.333333  0.333333  0.000000    0.01234568  16 t-inv T
 -0.111111 -0.333333  0.000000    0.01234568  17 t-inv T
 -0.444444  0.333333  0.000000    0.01234568  17 t-inv T
 -0.222222 -0.333333  0.000000    0.01234568  18 t-inv T
 -0.555556  0.333333  0.000000    0.01234568  18 t-inv T
  0.222222 -0.333333  0.000000    0.01234568  20 t-inv T
 -0.111111  0.333333  0.000000    0.01234568  20 t-inv T
  0.000000 -0.444444  0.000000    0.01234568  21 t-inv T
 -0.444444  0.444444  0.000000    0.01234568  21 t-inv T
 -0.111111 -0.444444  0.000000    0.01234568  22 t-inv T
 -0.555556  0.444444  0.000000    0.01234568  22 t-inv T
 -0.222222 -0.444444  0.000000    0.01234568  23 t-inv T
 -0.666667  0.444444  0.000000    0.01234568  23 t-inv T
  0.333333 -0.444444  0.000000    0.01234568  24 t-inv T
 -0.111111  0.444444  0.000000    0.01234568  24 t-inv T


--------------------------------------------------------------------------------------------------------




 Dimension of arrays:
   k-points           NKPTS =     25   k-points in BZ     NKDIM =     25   number of bands    NBANDS=    120
   number of dos      NEDOS =    301   number of ions     NIONS =      6
   non local maximal  LDIM  =      6   non local SUM 2l+1 LMDIM =     18
   total plane-waves  NPLWV = 184320
   max r-space proj   IRMAX =      1   max aug-charges    IRDMAX=  28260
   dimension x,y,z NGX =    24 NGY =   24 NGZ =  320
   dimension x,y,z NGXF=    48 NGYF=   48 NGZF=  640
   support grid    NGXF=    48 NGYF=   48 NGZF=  640
   ions per type =               1   1   4
   NGX,Y,Z   is equivalent  to a cutoff of  12.51, 12.51, 11.12 a.u.
   NGXF,Y,Z  is equivalent  to a cutoff of  25.02, 25.02, 22.24 a.u.

 SYSTEM =  MoS2_ml                                 
 POSCAR =  09-Mar-2019 22:12:06                    

 Startparameter for this run:
   NWRITE =      2    write-flag & timer
   PREC   = acc       normal or accurate (medium, high low for compatibility)
   ISTART =      0    job   : 0-new  1-cont  2-samecut
   ICHARG =      2    charge: 1-file 2-atom 10-const
   ISPIN  =      1    spin polarized calculation?
   LNONCOLLINEAR =      F non collinear calculations
   LSORBIT =      F    spin-orbit coupling
   INIWAV =      1    electr: 0-lowe 1-rand  2-diag
   LASPH  =      F    aspherical Exc in radial PAW
   METAGGA=      F    non-selfconsistent MetaGGA calc.

 Electronic Relaxation 1
   ENCUT  =  400.0 eV  29.40 Ry    5.42 a.u.   5.20  5.20 78.03*2*pi/ulx,y,z
   ENINI  =  400.0     initial cutoff
   ENAUG  =  373.4 eV  augmentation charge cutoff
   NELM   =     50;   NELMIN=  2; NELMDL= -5     # of ELM steps 
   EDIFF  = 0.1E-07   stopping-criterion for ELM
   LREAL  =      F    real-space projection
   NLSPLINE    = F    spline interpolate recip. space projectors
   LCOMPAT=      F    compatible to vasp.4.4
   GGA_COMPAT  = T    GGA compatible to vasp.4.4-vasp.4.6
   LMAXPAW     = -100 max onsite density
   LMAXMIX     =    2 max onsite mixed and CHGCAR
   VOSKOWN=      0    Vosko Wilk Nusair interpolation
   ROPT   =    0.00000   0.00000   0.00000
 Ionic relaxation
   EDIFFG = 0.1E-06   stopping-criterion for IOM
   NSW    =      0    number of steps for IOM
   NBLOCK =      1;   KBLOCK =      1    inner block; outer block 
   IBRION =     -1    ionic relax: 0-MD 1-quasi-New 2-CG
   NFREE  =      0    steps in history (QN), initial steepest desc. (CG)
   ISIF   =      2    stress and relaxation
   IWAVPR =     10    prediction:  0-non 1-charg 2-wave 3-comb
   ISYM   =      2    0-nonsym 1-usesym 2-fastsym
   LCORR  =      T    Harris-Foulkes like correction to forces

   POTIM  = 0.5000    time-step for ionic-motion
   TEIN   =    0.0    initial temperature
   TEBEG  =    0.0;   TEEND  =   0.0 temperature during run
   SMASS  =  -3.00    Nose mass-parameter (am)
   estimated Nose-frequenzy (Omega)   =  0.10E-29 period in steps =****** mass=  -0.233E-27a.u.
   SCALEE = 1.0000    scale energy and forces
   NPACO  =    256;   APACO  = 16.0  distance and # of slots for P.C.
   PSTRESS=    0.0 pullay stress

  Mass of Ions in am
   POMASS =  95.94183.85 32.07
  Ionic Valenz
   ZVAL   =   6.00  6.00  6.00
  Atomic Wigner-Seitz radii
   RWIGS  =  -1.00 -1.00 -1.00
  virtual crystal weights 
   VCA    =   1.00  1.00  1.00
   NELECT =      36.0000    total number of electrons
   NUPDOWN=      -1.0000    fix difference up-down

 DOS related values:
   EMIN   =  10.00;   EMAX   =-10.00  energy-range for DOS
   EFERMI =   0.00
   ISMEAR =     0;   SIGMA  =   0.05  broadening in eV -4-tet -1-fermi 0-gaus

 Electronic relaxation 2 (details)
   IALGO  =     38    algorithm
   LDIAG  =      T    sub-space diagonalisation (order eigenvalues)
   LSUBROT=      F    optimize rotation matrix (better conditioning)
   TURBO    =      0    0=normal 1=particle mesh
   IRESTART =      0    0=no restart 2=restart with 2 vectors
   NREBOOT  =      0    no. of reboots
   NMIN     =      0    reboot dimension
   EREF     =   0.00    reference energy to select bands
   IMIX   =      4    mixing-type and parameters
     AMIX     =   0.40;   BMIX     =  1.00
     AMIX_MAG =   1.60;   BMIX_MAG =  1.00
     AMIN     =   0.10
     WC   =   100.;   INIMIX=   1;  MIXPRE=   1;  MAXMIX= -45

 Intra band minimization:
   WEIMIN = 0.0000     energy-eigenvalue tresh-hold
   EBREAK =  0.21E-10  absolut break condition
   DEPER  =   0.30     relativ break condition  

   TIME   =   0.40     timestep for ELM

  volume/ion in A,a.u.               =      70.28       474.28
  Fermi-wavevector in a.u.,A,eV,Ry     =   0.720849  1.362207  7.069906  0.519623
  Thomas-Fermi vector in A             =   1.810406
 
 Write flags
   LWAVE        =      T    write WAVECAR
   LDOWNSAMPLE  =      F    k-point downsampling of WAVECAR
   LCHARG       =      T    write CHGCAR
   LVTOT        =      F    write LOCPOT, total local potential
   LVHAR        =      F    write LOCPOT, Hartree potential only
   LELF         =      F    write electronic localiz. function (ELF)
   LORBIT       =     12    0 simple, 1 ext, 2 COOP (PROOUT), +10 PAW based schemes


 Dipole corrections
   LMONO  =      F    monopole corrections only (constant potential shift)
   LDIPOL =      F    correct potential (dipole corrections)
   IDIPOL =      0    1-x, 2-y, 3-z, 4-all directions 
   EPSILON=  1.0000000 bulk dielectric constant

 Exchange correlation treatment:
   GGA     =    --    GGA type
   LEXCH   =     8    internal setting for exchange type
   VOSKOWN=      0    Vosko Wilk Nusair interpolation
   LHFCALC =     F    Hartree Fock is set to
   LHFONE  =     F    Hartree Fock one center treatment
   AEXX    =    0.0000 exact exchange contribution

 Linear response parameters
   LEPSILON=     F    determine dielectric tensor
   LRPA    =     F    only Hartree local field effects (RPA)
   LNABLA  =     F    use nabla operator in PAW spheres
   LVEL    =     F    velocity operator in full k-point grid
   LINTERFAST=   F  fast interpolation
   KINTER  =     0    interpolate to denser k-point grid
   CSHIFT  =0.1000    complex shift for real part using Kramers Kronig
   OMEGAMAX=  -1.0    maximum frequency
   DEG_THRESHOLD= 0.2000000E-02 threshold for treating states as degnerate
   RTIME   =   -0.100 relaxation time in fs
  (WPLASMAI=    0.000 imaginary part of plasma frequency in eV, 0.658/RTIME)
   DFIELD  = 0.0000000 0.0000000 0.0000000 field for delta impulse in time
 
 Orbital magnetization related:
   ORBITALMAG=     F  switch on orbital magnetization
   LCHIMAG   =     F  perturbation theory with respect to B field
   DQ        =  0.001000  dq finite difference perturbation B field
   LLRAUG    =     F  two centre corrections for induced B field



--------------------------------------------------------------------------------------------------------


 Static calculation
 charge density and potential will be updated during run
 non-spin polarized calculation
 Variant of blocked Davidson
 Davidson routine will perform the subspace rotation
 perform sub-space diagonalisation
    after iterative eigenvector-optimisation
 modified Broyden-mixing scheme, WC =      100.0
 initial mixing is a Kerker type mixing with AMIX =  0.4000 and BMIX =      1.0000
 Hartree-type preconditioning will be used
 using additional bands          102
 reciprocal scheme for non local part
 use partial core corrections
 calculate Harris-corrections to forces 
   (improved forces if not selfconsistent)
 use gradient corrections 
 use of overlap-Matrix (Vanderbilt PP)
 Gauss-broadening in eV      SIGMA  =   0.05


--------------------------------------------------------------------------------------------------------


  energy-cutoff  :      400.00
  volume of cell :      421.69
      direct lattice vectors                 reciprocal lattice vectors
     1.595000000 -2.762621038  0.000000000     0.313479624 -0.180987545  0.000000000
     1.595000000  2.762621038  0.000000000     0.313479624  0.180987545  0.000000000
     0.000000000  0.000000000 47.850000000     0.000000000  0.000000000  0.020898642

  length of vectors
     3.190000000  3.190000000 47.850000000     0.361975090  0.361975090  0.020898642


 
 k-points in units of 2pi/SCALE and weight: mos2 mono                               
   0.00000000  0.00000000  0.00000000       0.012
   0.11111111 -0.06415003  0.00000000       0.025
   0.22222222 -0.12830006  0.00000000       0.025
   0.33333333 -0.19245009  0.00000000       0.025
   0.44444444 -0.25660012  0.00000000       0.025
   0.11111111  0.06415003  0.00000000       0.049
   0.22222222  0.00000000  0.00000000       0.049
   0.33333333 -0.06415003  0.00000000       0.049
   0.44444444 -0.12830006  0.00000000       0.049
   0.55555556 -0.19245009  0.00000000       0.025
   0.22222222  0.12830006  0.00000000       0.049
   0.33333333  0.06415003  0.00000000       0.049
   0.44444444  0.00000000  0.00000000       0.049
   0.55555556 -0.06415003  0.00000000       0.049
   0.11111111  0.19245009  0.00000000       0.025
   0.33333333  0.19245009  0.00000000       0.049
   0.44444444  0.12830006  0.00000000       0.049
   0.55555556  0.06415003  0.00000000       0.049
   0.66666667  0.00000000  0.00000000       0.025
   0.11111111  0.32075015  0.00000000       0.049
   0.44444444  0.25660012  0.00000000       0.049
   0.55555556  0.19245009  0.00000000       0.049
   0.66666667  0.12830006  0.00000000       0.049
   0.11111111  0.44905021  0.00000000       0.049
   0.22222222  0.38490018  0.00000000       0.025
 
 k-points in reciprocal lattice and weights: mos2 mono                               
   0.00000000  0.00000000  0.00000000       0.012
   0.11111111 -0.00000000  0.00000000       0.025
   0.22222222  0.00000000  0.00000000       0.025
   0.33333333  0.00000000  0.00000000       0.025
   0.44444444  0.00000000  0.00000000       0.025
  -0.00000000  0.11111111  0.00000000       0.049
   0.11111111  0.11111111  0.00000000       0.049
   0.22222222  0.11111111  0.00000000       0.049
   0.33333333  0.11111111  0.00000000       0.049
   0.44444444  0.11111111  0.00000000       0.025
   0.00000000  0.22222222  0.00000000       0.049
   0.11111111  0.22222222  0.00000000       0.049
   0.22222222  0.22222222  0.00000000       0.049
   0.33333333  0.22222222  0.00000000       0.049
  -0.11111111  0.22222222  0.00000000       0.025
   0.00000000  0.33333333  0.00000000       0.049
   0.11111111  0.33333333  0.00000000       0.049
   0.22222222  0.33333333  0.00000000       0.049
   0.33333333  0.33333333  0.00000000       0.025
  -0.22222222  0.33333333  0.00000000       0.049
   0.00000000  0.44444444  0.00000000       0.049
   0.11111111  0.44444444  0.00000000       0.049
   0.22222222  0.44444444  0.00000000       0.049
  -0.33333333  0.44444444  0.00000000       0.049
  -0.22222222  0.44444444  0.00000000       0.025
 
 position of ions in fractional coordinates (direct lattice) 
   0.00000000  0.00000000  0.02116040
   0.66666660  0.33333330  0.17623398
   0.66666660  0.33333330  0.98853336
   0.66666660  0.33333330  0.05378938
   0.00000000  0.00000000  0.14348571
   0.00000000  0.00000000  0.20898018
 
 position of ions in cartesian coordinates  (Angst):
   0.00000000  0.00000000  1.01252531
   1.59499984 -0.92087359  8.43279576
   1.59499984 -0.92087359 47.30132150
   1.59499984 -0.92087359  2.57382197
   0.00000000  0.00000000  6.86579111
   0.00000000  0.00000000  9.99970183
 


--------------------------------------------------------------------------------------------------------


 k-point  1 :   0.0000 0.0000 0.0000  plane waves:    7609
 k-point  2 :   0.1111-0.0000 0.0000  plane waves:    7619
 k-point  3 :   0.2222 0.0000 0.0000  plane waves:    7629
 k-point  4 :   0.3333 0.0000 0.0000  plane waves:    7695
 k-point  5 :   0.4444 0.0000 0.0000  plane waves:    7715
 k-point  6 :  -0.0000 0.1111 0.0000  plane waves:    7619
 k-point  7 :   0.1111 0.1111 0.0000  plane waves:    7643
 k-point  8 :   0.2222 0.1111 0.0000  plane waves:    7668
 k-point  9 :   0.3333 0.1111 0.0000  plane waves:    7675
 k-point 10 :   0.4444 0.1111 0.0000  plane waves:    7670
 k-point 11 :   0.0000 0.2222 0.0000  plane waves:    7629
 k-point 12 :   0.1111 0.2222 0.0000  plane waves:    7668
 k-point 13 :   0.2222 0.2222 0.0000  plane waves:    7641
 k-point 14 :   0.3333 0.2222 0.0000  plane waves:    7640
 k-point 15 :  -0.1111 0.2222 0.0000  plane waves:    7643
 k-point 16 :   0.0000 0.3333 0.0000  plane waves:    7695
 k-point 17 :   0.1111 0.3333 0.0000  plane waves:    7675
 k-point 18 :   0.2222 0.3333 0.0000  plane waves:    7640
 k-point 19 :   0.3333 0.3333 0.0000  plane waves:    7575
 k-point 20 :  -0.2222 0.3333 0.0000  plane waves:    7668
 k-point 21 :   0.0000 0.4444 0.0000  plane waves:    7715
 k-point 22 :   0.1111 0.4444 0.0000  plane waves:    7670
 k-point 23 :   0.2222 0.4444 0.0000  plane waves:    7640
 k-point 24 :  -0.3333 0.4444 0.0000  plane waves:    7675
 k-point 25 :  -0.2222 0.4444 0.0000  plane waves:    7641

 maximum and minimum number of plane-waves per node :      7715     7575

 maximum number of plane-waves:      7715
 maximum index in each direction: 
   IXMAX=    5   IYMAX=    5   IZMAX=   78
   IXMIN=   -5   IYMIN=   -5   IZMIN=  -78


 serial   3D FFT for wavefunctions
 parallel 3D FFT for charge:
    minimum data exchange during FFTs selected (reduces bandwidth)


 total amount of memory used by VASP MPI-rank0   294897. kBytes
=======================================================================

   base      :      30000. kBytes
   nonl-proj :      84073. kBytes
   fftplans  :      17258. kBytes
   grid      :      38913. kBytes
   one-center:         93. kBytes
   wavefun   :     124560. kBytes
 
     INWAV:  cpu time    0.0000: real time    0.0002
 Broyden mixing: mesh for mixing (old mesh)
   NGX = 11   NGY = 11   NGZ =157
  (NGX  = 48   NGY  = 48   NGZ  =640)
  gives a total of  18997 points

 initial charge density was supplied:
 charge density of overlapping atoms calculated
 number of electron      36.0000000 magnetization 
 keeping initial charge density in first step


--------------------------------------------------------------------------------------------------------


 Maximum index for augmentation-charges         9088 (set IRDMAX)


--------------------------------------------------------------------------------------------------------


 First call to EWALD:  gamma=   0.236
 Maximum number of real-space cells 7x 7x 1
 Maximum number of reciprocal cells 1x 1x15

    FEWALD:  cpu time    0.0017: real time    0.0017


--------------------------------------- Iteration      1(   1)  ---------------------------------------


    POTLOK:  cpu time    0.3450: real time    0.4398
    SETDIJ:  cpu time    0.0040: real time    0.0040
     EDDAV:  cpu time    4.6769: real time    4.8225
       DOS:  cpu time    0.0013: real time    0.0013
    --------------------------------------------
      LOOP:  cpu time    5.0271: real time    5.2676

 eigenvalue-minimisations  :  6018
 total energy-change (2. order) : 0.1717672E+03  (-0.8246611E+03)
 number of electron      36.0000000 magnetization 
 augmentation part       36.0000000 magnetization 

 Free energy of the ion-electron system (eV)
  ---------------------------------------------------
  alpha Z        PSCENC =        28.72771110
  Ewald energy   TEWEN  =     25925.22333041
  -Hartree energ DENC   =    -27293.43580936
  -exchange      EXHF   =         0.00000000
  -V(xc)+E(xc)   XCENC  =       -59.35671021
  PAW double counting   =      1377.38389772    -1234.31859834
  entropy T*S    EENTRO =        -0.00239822
  eigenvalues    EBANDS =      -101.85085630
  atomic energy  EATOM  =      1529.39664839
  Solvation  Ediel_sol  =         0.00000000
  ---------------------------------------------------
  free energy    TOTEN  =       171.76721517 eV

  energy without entropy =      171.76961339  energy(sigma->0) =      171.76841428


--------------------------------------------------------------------------------------------------------




--------------------------------------- Iteration      1(   2)  ---------------------------------------


     EDDAV:  cpu time    5.4736: real time    5.4750
       DOS:  cpu time    0.0013: real time    0.0013
    --------------------------------------------
      LOOP:  cpu time    5.4749: real time    5.4763

 eigenvalue-minimisations  :  7524
 total energy-change (2. order) :-0.2071859E+03  (-0.1925567E+03)
 number of electron      36.0000000 magnetization 
 augmentation part       36.0000000 magnetization 

 Free energy of the ion-electron system (eV)
  ---------------------------------------------------
  alpha Z        PSCENC =        28.72771110
  Ewald energy   TEWEN  =     25925.22333041
  -Hartree energ DENC   =    -27293.43580936
  -exchange      EXHF   =         0.00000000
  -V(xc)+E(xc)   XCENC  =       -59.35671021
  PAW double counting   =      1377.38389772    -1234.31859834
  entropy T*S    EENTRO =        -0.00000000
  eigenvalues    EBANDS =      -309.03911535
  atomic energy  EATOM  =      1529.39664839
  Solvation  Ediel_sol  =         0.00000000
  ---------------------------------------------------
  free energy    TOTEN  =       -35.41864566 eV

  energy without entropy =      -35.41864566  energy(sigma->0) =      -35.41864566


--------------------------------------------------------------------------------------------------------




--------------------------------------- Iteration      1(   3)  ---------------------------------------


     EDDAV:  cpu time    5.5204: real time    5.5296
       DOS:  cpu time    0.0009: real time    0.0009
    --------------------------------------------
      LOOP:  cpu time    5.5213: real time    5.5305

 eigenvalue-minimisations  :  7419
 total energy-change (2. order) :-0.1299074E+02  (-0.1271519E+02)
 number of electron      36.0000000 magnetization 
 augmentation part       36.0000000 magnetization 

 Free energy of the ion-electron system (eV)
  ---------------------------------------------------
  alpha Z        PSCENC =        28.72771110
  Ewald energy   TEWEN  =     25925.22333041
  -Hartree energ DENC   =    -27293.43580936
  -exchange      EXHF   =         0.00000000
  -V(xc)+E(xc)   XCENC  =       -59.35671021
  PAW double counting   =      1377.38389772    -1234.31859834
  entropy T*S    EENTRO =        -0.00000000
  eigenvalues    EBANDS =      -322.02985788
  atomic energy  EATOM  =      1529.39664839
  Solvation  Ediel_sol  =         0.00000000
  ---------------------------------------------------
  free energy    TOTEN  =       -48.40938819 eV

  energy without entropy =      -48.40938819  energy(sigma->0) =      -48.40938819


--------------------------------------------------------------------------------------------------------




--------------------------------------- Iteration      1(   4)  ---------------------------------------


     EDDAV:  cpu time    5.3932: real time    5.4002
       DOS:  cpu time    0.0010: real time    0.0010
    --------------------------------------------
      LOOP:  cpu time    5.3942: real time    5.4012

 eigenvalue-minimisations  :  7095
 total energy-change (2. order) :-0.1969799E+00  (-0.1968749E+00)
 number of electron      36.0000000 magnetization 
 augmentation part       36.0000000 magnetization 

 Free energy of the ion-electron system (eV)
  ---------------------------------------------------
  alpha Z        PSCENC =        28.72771110
  Ewald energy   TEWEN  =     25925.22333041
  -Hartree energ DENC   =    -27293.43580936
  -exchange      EXHF   =         0.00000000
  -V(xc)+E(xc)   XCENC  =       -59.35671021
  PAW double counting   =      1377.38389772    -1234.31859834
  entropy T*S    EENTRO =        -0.00000000
  eigenvalues    EBANDS =      -322.22683776
  atomic energy  EATOM  =      1529.39664839
  Solvation  Ediel_sol  =         0.00000000
  ---------------------------------------------------
  free energy    TOTEN  =       -48.60636807 eV

  energy without entropy =      -48.60636807  energy(sigma->0) =      -48.60636807


--------------------------------------------------------------------------------------------------------




--------------------------------------- Iteration      1(   5)  ---------------------------------------


     EDDAV:  cpu time    5.7913: real time    5.7943
       DOS:  cpu time    0.0010: real time    0.0010
    CHARGE:  cpu time    0.1604: real time    0.1604
    MIXING:  cpu time    0.0156: real time    0.0156
    --------------------------------------------
      LOOP:  cpu time    5.9682: real time    5.9713

 eigenvalue-minimisations  :  7392
 total energy-change (2. order) :-0.5107161E-02  (-0.5106899E-02)
 number of electron      36.0000005 magnetization 
 augmentation part       -2.1748739 magnetization 

 Broyden mixing:
  rms(total) = 0.36736E+01    rms(broyden)= 0.36736E+01
  rms(prec ) = 0.36800E+01
  weight for this iteration     100.00

 Free energy of the ion-electron system (eV)
  ---------------------------------------------------
  alpha Z        PSCENC =        28.72771110
  Ewald energy   TEWEN  =     25925.22333041
  -Hartree energ DENC   =    -27293.43580936
  -exchange      EXHF   =         0.00000000
  -V(xc)+E(xc)   XCENC  =       -59.35671021
  PAW double counting   =      1377.38389772    -1234.31859834
  entropy T*S    EENTRO =        -0.00000000
  eigenvalues    EBANDS =      -322.23194492
  atomic energy  EATOM  =      1529.39664839
  Solvation  Ediel_sol  =         0.00000000
  ---------------------------------------------------
  free energy    TOTEN  =       -48.61147523 eV

  energy without entropy =      -48.61147523  energy(sigma->0) =      -48.61147523


--------------------------------------------------------------------------------------------------------




--------------------------------------- Iteration      1(   6)  ---------------------------------------


    POTLOK:  cpu time    0.4193: real time    0.4208
    SETDIJ:  cpu time    0.0043: real time    0.0043
     EDDAV:  cpu time    6.0995: real time    6.1049
       DOS:  cpu time    0.0007: real time    0.0007
    CHARGE:  cpu time    0.1316: real time    0.1317
    MIXING:  cpu time    0.0169: real time    0.0169
    --------------------------------------------
      LOOP:  cpu time    6.6723: real time    6.6791

 eigenvalue-minimisations  :  8373
 total energy-change (2. order) : 0.2455789E+01  (-0.9209257E-01)
 number of electron      36.0000005 magnetization 
 augmentation part       -1.2988205 magnetization 

 Broyden mixing:
  rms(total) = 0.14379E+01    rms(broyden)= 0.14378E+01
  rms(prec ) = 0.14425E+01
  weight for this iteration     100.00

 eigenvalues of (default mixing * dielectric matrix)
  average eigenvalue GAMMA=   1.2990
  1.2990

 Free energy of the ion-electron system (eV)
  ---------------------------------------------------
  alpha Z        PSCENC =        28.72771110
  Ewald energy   TEWEN  =     25925.22333041
  -Hartree energ DENC   =    -27291.73370638
  -exchange      EXHF   =         0.00000000
  -V(xc)+E(xc)   XCENC  =       -57.59026553
  PAW double counting   =      2121.05399169    -1979.84783522
  entropy T*S    EENTRO =        -0.00000000
  eigenvalues    EBANDS =      -321.38556069
  atomic energy  EATOM  =      1529.39664839
  Solvation  Ediel_sol  =         0.00000000
  ---------------------------------------------------
  free energy    TOTEN  =       -46.15568624 eV

  energy without entropy =      -46.15568624  energy(sigma->0) =      -46.15568624


--------------------------------------------------------------------------------------------------------




--------------------------------------- Iteration      1(   7)  ---------------------------------------


    POTLOK:  cpu time    0.4092: real time    0.4100
    SETDIJ:  cpu time    0.0092: real time    0.0092
     EDDAV:  cpu time    5.2911: real time    5.2934
       DOS:  cpu time    0.0007: real time    0.0007
    CHARGE:  cpu time    0.1353: real time    0.1353
    MIXING:  cpu time    0.0163: real time    0.0163
    --------------------------------------------
      LOOP:  cpu time    5.8618: real time    5.8649

 eigenvalue-minimisations  :  6678
 total energy-change (2. order) : 0.1719457E+00  (-0.4769414E-01)
 number of electron      36.0000005 magnetization 
 augmentation part       -1.8001576 magnetization 

 Broyden mixing:
  rms(total) = 0.10439E+01    rms(broyden)= 0.10439E+01
  rms(prec ) = 0.10490E+01
  weight for this iteration     100.00

 eigenvalues of (default mixing * dielectric matrix)
  average eigenvalue GAMMA=   1.4330
  0.6757  2.1903

 Free energy of the ion-electron system (eV)
  ---------------------------------------------------
  alpha Z        PSCENC =        28.72771110
  Ewald energy   TEWEN  =     25925.22333041
  -Hartree energ DENC   =    -27308.43230859
  -exchange      EXHF   =         0.00000000
  -V(xc)+E(xc)   XCENC  =       -57.83955694
  PAW double counting   =      2855.05683171    -2714.59682041
  entropy T*S    EENTRO =        -0.00000000
  eigenvalues    EBANDS =      -303.51957617
  atomic energy  EATOM  =      1529.39664839
  Solvation  Ediel_sol  =         0.00000000
  ---------------------------------------------------
  free energy    TOTEN  =       -45.98374051 eV

  energy without entropy =      -45.98374051  energy(sigma->0) =      -45.98374051


--------------------------------------------------------------------------------------------------------




--------------------------------------- Iteration      1(   8)  ---------------------------------------


    POTLOK:  cpu time    0.4123: real time    0.4134
    SETDIJ:  cpu time    0.0043: real time    0.0044
     EDDAV:  cpu time    5.5080: real time    5.5101
       DOS:  cpu time    0.0008: real time    0.0008
    CHARGE:  cpu time    0.1601: real time    0.1602
    MIXING:  cpu time    0.0156: real time    0.0156
    --------------------------------------------
      LOOP:  cpu time    6.1012: real time    6.1045

 eigenvalue-minimisations  :  6888
 total energy-change (2. order) : 0.4460214E+00  (-0.1863985E-01)
 number of electron      36.0000005 magnetization 
 augmentation part       -1.4631818 magnetization 

 Broyden mixing:
  rms(total) = 0.17867E+00    rms(broyden)= 0.17867E+00
  rms(prec ) = 0.18070E+00
  weight for this iteration     100.00

 eigenvalues of (default mixing * dielectric matrix)
  average eigenvalue GAMMA=   1.2182
  2.2770  0.8161  0.5616

 Free energy of the ion-electron system (eV)
  ---------------------------------------------------
  alpha Z        PSCENC =        28.72771110
  Ewald energy   TEWEN  =     25925.22333041
  -Hartree energ DENC   =    -27308.07584112
  -exchange      EXHF   =         0.00000000
  -V(xc)+E(xc)   XCENC  =       -57.08767123
  PAW double counting   =      3508.76243340    -3369.05727261
  entropy T*S    EENTRO =        -0.00000000
  eigenvalues    EBANDS =      -303.42705744
  atomic energy  EATOM  =      1529.39664839
  Solvation  Ediel_sol  =         0.00000000
  ---------------------------------------------------
  free energy    TOTEN  =       -45.53771911 eV

  energy without entropy =      -45.53771911  energy(sigma->0) =      -45.53771911


--------------------------------------------------------------------------------------------------------




--------------------------------------- Iteration      1(   9)  ---------------------------------------


    POTLOK:  cpu time    0.4391: real time    0.4407
    SETDIJ:  cpu time    0.0063: real time    0.0063
     EDDAV:  cpu time    5.7424: real time    5.7453
       DOS:  cpu time    0.0007: real time    0.0007
    CHARGE:  cpu time    0.1361: real time    0.1361
    MIXING:  cpu time    0.0166: real time    0.0166
    --------------------------------------------
      LOOP:  cpu time    6.3411: real time    6.3457

 eigenvalue-minimisations  :  7176
 total energy-change (2. order) : 0.1954695E-01  (-0.9733902E-02)
 number of electron      36.0000005 magnetization 
 augmentation part       -1.4915180 magnetization 

 Broyden mixing:
  rms(total) = 0.66958E-01    rms(broyden)= 0.66957E-01
  rms(prec ) = 0.67574E-01
  weight for this iteration     100.00

 eigenvalues of (default mixing * dielectric matrix)
  average eigenvalue GAMMA=   1.2598
  2.4714  1.2444  0.7541  0.5693

 Free energy of the ion-electron system (eV)
  ---------------------------------------------------
  alpha Z        PSCENC =        28.72771110
  Ewald energy   TEWEN  =     25925.22333041
  -Hartree energ DENC   =    -27309.59565213
  -exchange      EXHF   =         0.00000000
  -V(xc)+E(xc)   XCENC  =       -57.06920115
  PAW double counting   =      3579.67191176    -3440.03072351
  entropy T*S    EENTRO =        -0.00000000
  eigenvalues    EBANDS =      -301.84219703
  atomic energy  EATOM  =      1529.39664839
  Solvation  Ediel_sol  =         0.00000000
  ---------------------------------------------------
  free energy    TOTEN  =       -45.51817216 eV

  energy without entropy =      -45.51817216  energy(sigma->0) =      -45.51817216


--------------------------------------------------------------------------------------------------------




--------------------------------------- Iteration      1(  10)  ---------------------------------------


    POTLOK:  cpu time    0.4210: real time    0.4221
    SETDIJ:  cpu time    0.0043: real time    0.0043
     EDDAV:  cpu time    5.6115: real time    5.6154
       DOS:  cpu time    0.0006: real time    0.0006
    CHARGE:  cpu time    0.1488: real time    0.1491
    MIXING:  cpu time    0.0175: real time    0.0175
    --------------------------------------------
      LOOP:  cpu time    6.2037: real time    6.2091

 eigenvalue-minimisations  :  7167
 total energy-change (2. order) : 0.3559411E-02  (-0.6111938E-03)
 number of electron      36.0000005 magnetization 
 augmentation part       -1.5237876 magnetization 

 Broyden mixing:
  rms(total) = 0.53520E-01    rms(broyden)= 0.53520E-01
  rms(prec ) = 0.53756E-01
  weight for this iteration     100.00

 eigenvalues of (default mixing * dielectric matrix)
  average eigenvalue GAMMA=   1.3210
  2.5534  1.6739  1.1326  0.6225  0.6225

 Free energy of the ion-electron system (eV)
  ---------------------------------------------------
  alpha Z        PSCENC =        28.72771110
  Ewald energy   TEWEN  =     25925.22333041
  -Hartree energ DENC   =    -27311.53179128
  -exchange      EXHF   =         0.00000000
  -V(xc)+E(xc)   XCENC  =       -57.06047387
  PAW double counting   =      3668.42713194    -3528.82539083
  entropy T*S    EENTRO =        -0.00000000
  eigenvalues    EBANDS =      -299.87177860
  atomic energy  EATOM  =      1529.39664839
  Solvation  Ediel_sol  =         0.00000000
  ---------------------------------------------------
  free energy    TOTEN  =       -45.51461275 eV

  energy without entropy =      -45.51461275  energy(sigma->0) =      -45.51461275


--------------------------------------------------------------------------------------------------------




--------------------------------------- Iteration      1(  11)  ---------------------------------------


    POTLOK:  cpu time    0.4430: real time    0.4444
    SETDIJ:  cpu time    0.0051: real time    0.0051
     EDDAV:  cpu time    5.3641: real time    5.3747
       DOS:  cpu time    0.0006: real time    0.0006
    CHARGE:  cpu time    0.1546: real time    0.1546
    MIXING:  cpu time    0.0193: real time    0.0194
    --------------------------------------------
      LOOP:  cpu time    5.9867: real time    5.9988

 eigenvalue-minimisations  :  7014
 total energy-change (2. order) : 0.7608874E-03  (-0.2003428E-03)
 number of electron      36.0000005 magnetization 
 augmentation part       -1.5188464 magnetization 

 Broyden mixing:
  rms(total) = 0.26792E-01    rms(broyden)= 0.26792E-01
  rms(prec ) = 0.26912E-01
  weight for this iteration     100.00

 eigenvalues of (default mixing * dielectric matrix)
  average eigenvalue GAMMA=   1.3892
  2.4101  2.4101  1.2906  0.6093  0.8755  0.7395

 Free energy of the ion-electron system (eV)
  ---------------------------------------------------
  alpha Z        PSCENC =        28.72771110
  Ewald energy   TEWEN  =     25925.22333041
  -Hartree energ DENC   =    -27312.80940563
  -exchange      EXHF   =         0.00000000
  -V(xc)+E(xc)   XCENC  =       -57.03250431
  PAW double counting   =      3686.48666123    -3546.87677638
  entropy T*S    EENTRO =        -0.00000000
  eigenvalues    EBANDS =      -298.62951666
  atomic energy  EATOM  =      1529.39664839
  Solvation  Ediel_sol  =         0.00000000
  ---------------------------------------------------
  free energy    TOTEN  =       -45.51385186 eV

  energy without entropy =      -45.51385186  energy(sigma->0) =      -45.51385186


--------------------------------------------------------------------------------------------------------




--------------------------------------- Iteration      1(  12)  ---------------------------------------


    POTLOK:  cpu time    0.4269: real time    0.4285
    SETDIJ:  cpu time    0.0043: real time    0.0043
     EDDAV:  cpu time    5.3572: real time    5.3612
       DOS:  cpu time    0.0006: real time    0.0006
    CHARGE:  cpu time    0.1482: real time    0.1482
    MIXING:  cpu time    0.0170: real time    0.0170
    --------------------------------------------
      LOOP:  cpu time    5.9541: real time    5.9598

 eigenvalue-minimisations  :  7032
 total energy-change (2. order) : 0.1702439E-03  (-0.3674955E-04)
 number of electron      36.0000005 magnetization 
 augmentation part       -1.5161204 magnetization 

 Broyden mixing:
  rms(total) = 0.12523E-01    rms(broyden)= 0.12523E-01
  rms(prec ) = 0.12640E-01
  weight for this iteration     100.00

 eigenvalues of (default mixing * dielectric matrix)
  average eigenvalue GAMMA=   1.4383
  2.7549  2.7549  1.2472  1.1776  0.6275  0.6624  0.8438

 Free energy of the ion-electron system (eV)
  ---------------------------------------------------
  alpha Z        PSCENC =        28.72771110
  Ewald energy   TEWEN  =     25925.22333041
  -Hartree energ DENC   =    -27314.08135364
  -exchange      EXHF   =         0.00000000
  -V(xc)+E(xc)   XCENC  =       -57.02207353
  PAW double counting   =      3665.21515375    -3525.58545292
  entropy T*S    EENTRO =        -0.00000000
  eigenvalues    EBANDS =      -297.38764517
  atomic energy  EATOM  =      1529.39664839
  Solvation  Ediel_sol  =         0.00000000
  ---------------------------------------------------
  free energy    TOTEN  =       -45.51368162 eV

  energy without entropy =      -45.51368162  energy(sigma->0) =      -45.51368162


--------------------------------------------------------------------------------------------------------




--------------------------------------- Iteration      1(  13)  ---------------------------------------


    POTLOK:  cpu time    0.4029: real time    0.4036
    SETDIJ:  cpu time    0.0038: real time    0.0038
     EDDAV:  cpu time    5.2714: real time    5.2747
       DOS:  cpu time    0.0011: real time    0.0011
    CHARGE:  cpu time    0.1567: real time    0.1568
    MIXING:  cpu time    0.0173: real time    0.0173
    --------------------------------------------
      LOOP:  cpu time    5.8531: real time    5.8572

 eigenvalue-minimisations  :  6978
 total energy-change (2. order) : 0.6540383E-04  (-0.5088044E-05)
 number of electron      36.0000005 magnetization 
 augmentation part       -1.5147517 magnetization 

 Broyden mixing:
  rms(total) = 0.48516E-02    rms(broyden)= 0.48516E-02
  rms(prec ) = 0.49877E-02
  weight for this iteration     100.00

 eigenvalues of (default mixing * dielectric matrix)
  average eigenvalue GAMMA=   1.4870
  3.2442  2.2428  1.6636  1.6636  0.6157  0.8850  0.8850  0.6965

 Free energy of the ion-electron system (eV)
  ---------------------------------------------------
  alpha Z        PSCENC =        28.72771110
  Ewald energy   TEWEN  =     25925.22333041
  -Hartree energ DENC   =    -27315.16780688
  -exchange      EXHF   =         0.00000000
  -V(xc)+E(xc)   XCENC  =       -57.00924771
  PAW double counting   =      3663.57445188    -3523.94562349
  entropy T*S    EENTRO =        -0.00000000
  eigenvalues    EBANDS =      -296.31307991
  atomic energy  EATOM  =      1529.39664839
  Solvation  Ediel_sol  =         0.00000000
  ---------------------------------------------------
  free energy    TOTEN  =       -45.51361621 eV

  energy without entropy =      -45.51361621  energy(sigma->0) =      -45.51361621


--------------------------------------------------------------------------------------------------------




--------------------------------------- Iteration      1(  14)  ---------------------------------------


    POTLOK:  cpu time    0.4231: real time    0.4246
    SETDIJ:  cpu time    0.0043: real time    0.0043
     EDDAV:  cpu time    5.3222: real time    5.3257
       DOS:  cpu time    0.0007: real time    0.0007
    CHARGE:  cpu time    0.1385: real time    0.1385
    MIXING:  cpu time    0.0198: real time    0.0198
    --------------------------------------------
      LOOP:  cpu time    5.9085: real time    5.9136

 eigenvalue-minimisations  :  6852
 total energy-change (2. order) :-0.4433586E-04  (-0.1859346E-05)
 number of electron      36.0000005 magnetization 
 augmentation part       -1.5135453 magnetization 

 Broyden mixing:
  rms(total) = 0.30399E-02    rms(broyden)= 0.30399E-02
  rms(prec ) = 0.31420E-02
  weight for this iteration     100.00

 eigenvalues of (default mixing * dielectric matrix)
  average eigenvalue GAMMA=   1.4982
  3.2756  2.2762  2.2762  1.6062  0.9664  0.9664  0.6161  0.6866  0.8144

 Free energy of the ion-electron system (eV)
  ---------------------------------------------------
  alpha Z        PSCENC =        28.72771110
  Ewald energy   TEWEN  =     25925.22333041
  -Hartree energ DENC   =    -27315.90518832
  -exchange      EXHF   =         0.00000000
  -V(xc)+E(xc)   XCENC  =       -57.00031368
  PAW double counting   =      3669.88286268    -3530.26203775
  entropy T*S    EENTRO =        -0.00000000
  eigenvalues    EBANDS =      -295.57667337
  atomic energy  EATOM  =      1529.39664839
  Solvation  Ediel_sol  =         0.00000000
  ---------------------------------------------------
  free energy    TOTEN  =       -45.51366055 eV

  energy without entropy =      -45.51366055  energy(sigma->0) =      -45.51366055


--------------------------------------------------------------------------------------------------------




--------------------------------------- Iteration      1(  15)  ---------------------------------------


    POTLOK:  cpu time    0.4103: real time    0.4107
    SETDIJ:  cpu time    0.0056: real time    0.0056
     EDDAV:  cpu time    5.1302: real time    5.1305
       DOS:  cpu time    0.0008: real time    0.0008
    CHARGE:  cpu time    0.1324: real time    0.1324
    MIXING:  cpu time    0.0175: real time    0.0175
    --------------------------------------------
      LOOP:  cpu time    5.6968: real time    5.6975

 eigenvalue-minimisations  :  6825
 total energy-change (2. order) :-0.7794239E-04  (-0.4160514E-06)
 number of electron      36.0000005 magnetization 
 augmentation part       -1.5135014 magnetization 

 Broyden mixing:
  rms(total) = 0.67792E-03    rms(broyden)= 0.67791E-03
  rms(prec ) = 0.90526E-03
  weight for this iteration     100.00

 eigenvalues of (default mixing * dielectric matrix)
  average eigenvalue GAMMA=   1.5177
  3.5660  2.5578  2.1390  1.4707  1.4707  0.9379  0.9379  0.6160  0.6886  0.7929

 Free energy of the ion-electron system (eV)
  ---------------------------------------------------
  alpha Z        PSCENC =        28.72771110
  Ewald energy   TEWEN  =     25925.22333041
  -Hartree energ DENC   =    -27316.38250219
  -exchange      EXHF   =         0.00000000
  -V(xc)+E(xc)   XCENC  =       -56.99919154
  PAW double counting   =      3667.08711862    -3527.46518601
  entropy T*S    EENTRO =        -0.00000000
  eigenvalues    EBANDS =      -295.10166726
  atomic energy  EATOM  =      1529.39664839
  Solvation  Ediel_sol  =         0.00000000
  ---------------------------------------------------
  free energy    TOTEN  =       -45.51373849 eV

  energy without entropy =      -45.51373849  energy(sigma->0) =      -45.51373849


--------------------------------------------------------------------------------------------------------




--------------------------------------- Iteration      1(  16)  ---------------------------------------


    POTLOK:  cpu time    0.4241: real time    0.4255
    SETDIJ:  cpu time    0.0043: real time    0.0043
     EDDAV:  cpu time    5.2746: real time    5.2763
       DOS:  cpu time    0.0011: real time    0.0011
    CHARGE:  cpu time    0.1556: real time    0.1557
    MIXING:  cpu time    0.0183: real time    0.0183
    --------------------------------------------
      LOOP:  cpu time    5.8780: real time    5.8812

 eigenvalue-minimisations  :  6726
 total energy-change (2. order) :-0.8306838E-04  (-0.1865734E-06)
 number of electron      36.0000005 magnetization 
 augmentation part       -1.5133418 magnetization 

 Broyden mixing:
  rms(total) = 0.83966E-03    rms(broyden)= 0.83966E-03
  rms(prec ) = 0.94426E-03
  weight for this iteration     100.00

 eigenvalues of (default mixing * dielectric matrix)
  average eigenvalue GAMMA=   1.5660
  3.5832  2.3952  2.3952  2.3297  1.5376  1.0360  0.9230  0.9230  0.6159  0.6905
  0.7963

 Free energy of the ion-electron system (eV)
  ---------------------------------------------------
  alpha Z        PSCENC =        28.72771110
  Ewald energy   TEWEN  =     25925.22333041
  -Hartree energ DENC   =    -27316.84325129
  -exchange      EXHF   =         0.00000000
  -V(xc)+E(xc)   XCENC  =       -56.99762434
  PAW double counting   =      3666.03003658    -3526.40752401
  entropy T*S    EENTRO =        -0.00000000
  eigenvalues    EBANDS =      -294.64314840
  atomic energy  EATOM  =      1529.39664839
  Solvation  Ediel_sol  =         0.00000000
  ---------------------------------------------------
  free energy    TOTEN  =       -45.51382156 eV

  energy without entropy =      -45.51382156  energy(sigma->0) =      -45.51382156


--------------------------------------------------------------------------------------------------------




--------------------------------------- Iteration      1(  17)  ---------------------------------------


    POTLOK:  cpu time    0.4156: real time    0.4175
    SETDIJ:  cpu time    0.0046: real time    0.0046
     EDDAV:  cpu time    5.0965: real time    5.1021
       DOS:  cpu time    0.0008: real time    0.0008
    CHARGE:  cpu time    0.1376: real time    0.1380
    MIXING:  cpu time    0.0210: real time    0.0209
    --------------------------------------------
      LOOP:  cpu time    5.6761: real time    5.6840

 eigenvalue-minimisations  :  6633
 total energy-change (2. order) :-0.1014333E-03  (-0.1416104E-06)
 number of electron      36.0000005 magnetization 
 augmentation part       -1.5134060 magnetization 

 Broyden mixing:
  rms(total) = 0.28290E-03    rms(broyden)= 0.28290E-03
  rms(prec ) = 0.38577E-03
  weight for this iteration     100.00

 eigenvalues of (default mixing * dielectric matrix)
  average eigenvalue GAMMA=   1.7356
  5.6532  2.7176  2.7176  1.9463  1.5775  1.1482  1.1482  0.9216  0.9216  0.6159
  0.6896  0.7703

 Free energy of the ion-electron system (eV)
  ---------------------------------------------------
  alpha Z        PSCENC =        28.72771110
  Ewald energy   TEWEN  =     25925.22333041
  -Hartree energ DENC   =    -27317.30529404
  -exchange      EXHF   =         0.00000000
  -V(xc)+E(xc)   XCENC  =       -56.99655820
  PAW double counting   =      3666.81290558    -3527.19058192
  entropy T*S    EENTRO =        -0.00000000
  eigenvalues    EBANDS =      -294.18208430
  atomic energy  EATOM  =      1529.39664839
  Solvation  Ediel_sol  =         0.00000000
  ---------------------------------------------------
  free energy    TOTEN  =       -45.51392299 eV

  energy without entropy =      -45.51392299  energy(sigma->0) =      -45.51392299


--------------------------------------------------------------------------------------------------------




--------------------------------------- Iteration      1(  18)  ---------------------------------------


    POTLOK:  cpu time    0.4203: real time    0.4217
    SETDIJ:  cpu time    0.0037: real time    0.0037
     EDDAV:  cpu time    5.0955: real time    5.0972
       DOS:  cpu time    0.0012: real time    0.0012
    CHARGE:  cpu time    0.1589: real time    0.1589
    MIXING:  cpu time    0.0219: real time    0.0220
    --------------------------------------------
      LOOP:  cpu time    5.7016: real time    5.7046

 eigenvalue-minimisations  :  6594
 total energy-change (2. order) :-0.6760121E-04  (-0.9094925E-07)
 number of electron      36.0000005 magnetization 
 augmentation part       -1.5134054 magnetization 

 Broyden mixing:
  rms(total) = 0.32595E-03    rms(broyden)= 0.32595E-03
  rms(prec ) = 0.34373E-03
  weight for this iteration     100.00

 eigenvalues of (default mixing * dielectric matrix)
  average eigenvalue GAMMA=   1.8002
  5.2292  3.6764  2.3503  2.3503  2.2043  1.5602  1.0568  1.0568  0.9131  0.9131
  0.6159  0.6904  0.7854

 Free energy of the ion-electron system (eV)
  ---------------------------------------------------
  alpha Z        PSCENC =        28.72771110
  Ewald energy   TEWEN  =     25925.22333041
  -Hartree energ DENC   =    -27317.80003636
  -exchange      EXHF   =         0.00000000
  -V(xc)+E(xc)   XCENC  =       -56.99511291
  PAW double counting   =      3666.64020321    -3527.01769276
  entropy T*S    EENTRO =        -0.00000000
  eigenvalues    EBANDS =      -293.68904166
  atomic energy  EATOM  =      1529.39664839
  Solvation  Ediel_sol  =         0.00000000
  ---------------------------------------------------
  free energy    TOTEN  =       -45.51399060 eV

  energy without entropy =      -45.51399060  energy(sigma->0) =      -45.51399060


--------------------------------------------------------------------------------------------------------




--------------------------------------- Iteration      1(  19)  ---------------------------------------


    POTLOK:  cpu time    0.3978: real time    0.3990
    SETDIJ:  cpu time    0.0301: real time    0.0301
     EDDAV:  cpu time    5.1332: real time    5.1351
       DOS:  cpu time    0.0022: real time    0.0022
    CHARGE:  cpu time    0.1437: real time    0.1437
    MIXING:  cpu time    0.0189: real time    0.0189
    --------------------------------------------
      LOOP:  cpu time    5.7258: real time    5.7289

 eigenvalue-minimisations  :  6582
 total energy-change (2. order) :-0.3803377E-04  (-0.3080587E-07)
 number of electron      36.0000005 magnetization 
 augmentation part       -1.5133901 magnetization 

 Broyden mixing:
  rms(total) = 0.25178E-03    rms(broyden)= 0.25178E-03
  rms(prec ) = 0.25939E-03
  weight for this iteration     100.00

 eigenvalues of (default mixing * dielectric matrix)
  average eigenvalue GAMMA=   1.8871
  7.3419  3.2135  2.7427  2.7427  1.8492  1.6100  1.1481  1.1481  0.9130  0.9130
  0.6159  0.6905  0.7452  0.7452

 Free energy of the ion-electron system (eV)
  ---------------------------------------------------
  alpha Z        PSCENC =        28.72771110
  Ewald energy   TEWEN  =     25925.22333041
  -Hartree energ DENC   =    -27317.90464028
  -exchange      EXHF   =         0.00000000
  -V(xc)+E(xc)   XCENC  =       -56.99535592
  PAW double counting   =      3666.56565233    -3526.94293269
  entropy T*S    EENTRO =        -0.00000000
  eigenvalues    EBANDS =      -293.58444196
  atomic energy  EATOM  =      1529.39664839
  Solvation  Ediel_sol  =         0.00000000
  ---------------------------------------------------
  free energy    TOTEN  =       -45.51402863 eV

  energy without entropy =      -45.51402863  energy(sigma->0) =      -45.51402863


--------------------------------------------------------------------------------------------------------




--------------------------------------- Iteration      1(  20)  ---------------------------------------


    POTLOK:  cpu time    0.4005: real time    0.4017
    SETDIJ:  cpu time    0.0390: real time    0.0390
     EDDAV:  cpu time    5.1789: real time    5.1792
       DOS:  cpu time    0.0007: real time    0.0007
    CHARGE:  cpu time    0.1357: real time    0.1357
    MIXING:  cpu time    0.0226: real time    0.0227
    --------------------------------------------
      LOOP:  cpu time    5.7775: real time    5.7790

 eigenvalue-minimisations  :  6777
 total energy-change (2. order) :-0.9994358E-05  (-0.3384225E-08)
 number of electron      36.0000005 magnetization 
 augmentation part       -1.5133944 magnetization 

 Broyden mixing:
  rms(total) = 0.11791E-03    rms(broyden)= 0.11791E-03
  rms(prec ) = 0.12499E-03
  weight for this iteration     100.00

 eigenvalues of (default mixing * dielectric matrix)
  average eigenvalue GAMMA=   1.8142
  7.2881  3.4619  2.5567  2.5567  1.8928  1.6069  1.1149  1.1149  0.6159  0.6903
  0.9288  0.9288  0.7867  0.8345  0.8345

 Free energy of the ion-electron system (eV)
  ---------------------------------------------------
  alpha Z        PSCENC =        28.72771110
  Ewald energy   TEWEN  =     25925.22333041
  -Hartree energ DENC   =    -27317.99276603
  -exchange      EXHF   =         0.00000000
  -V(xc)+E(xc)   XCENC  =       -56.99506804
  PAW double counting   =      3666.61520293    -3526.99244946
  entropy T*S    EENTRO =        -0.00000000
  eigenvalues    EBANDS =      -293.49664792
  atomic energy  EATOM  =      1529.39664839
  Solvation  Ediel_sol  =         0.00000000
  ---------------------------------------------------
  free energy    TOTEN  =       -45.51403862 eV

  energy without entropy =      -45.51403862  energy(sigma->0) =      -45.51403862


--------------------------------------------------------------------------------------------------------




--------------------------------------- Iteration      1(  21)  ---------------------------------------


    POTLOK:  cpu time    0.4057: real time    0.4060
    SETDIJ:  cpu time    0.0204: real time    0.0204
     EDDAV:  cpu time    5.1369: real time    5.1390
       DOS:  cpu time    0.0010: real time    0.0010
    CHARGE:  cpu time    0.1380: real time    0.1380
    MIXING:  cpu time    0.0193: real time    0.0193
    --------------------------------------------
      LOOP:  cpu time    5.7213: real time    5.7236

 eigenvalue-minimisations  :  6735
 total energy-change (2. order) :-0.3960708E-05  (-0.2422432E-09)
 number of electron      36.0000005 magnetization 
 augmentation part       -1.5133972 magnetization 

 Broyden mixing:
  rms(total) = 0.11948E-03    rms(broyden)= 0.11948E-03
  rms(prec ) = 0.12465E-03
  weight for this iteration     100.00

 eigenvalues of (default mixing * dielectric matrix)
  average eigenvalue GAMMA=   1.9698
  7.6109  4.5569  2.8529  2.8529  2.2979  1.6126  1.6126  1.4385  1.0280  1.0280
  0.9020  0.9020  0.6159  0.6902  0.7716  0.7437

 Free energy of the ion-electron system (eV)
  ---------------------------------------------------
  alpha Z        PSCENC =        28.72771110
  Ewald energy   TEWEN  =     25925.22333041
  -Hartree energ DENC   =    -27317.99914918
  -exchange      EXHF   =         0.00000000
  -V(xc)+E(xc)   XCENC  =       -56.99509916
  PAW double counting   =      3666.67582620    -3527.05313204
  entropy T*S    EENTRO =        -0.00000000
  eigenvalues    EBANDS =      -293.49017829
  atomic energy  EATOM  =      1529.39664839
  Solvation  Ediel_sol  =         0.00000000
[...]
    104      17.8977      0.00000
    105      18.0799      0.00000
    106      18.3837      0.00000
    107      18.6339      0.00000
    108      18.7487      0.00000
    109      18.9899      0.00000
    110      19.2368      0.00000
    111      19.4039      0.00000
    112      19.6246      0.00000
    113      19.8053      0.00000
    114      19.9104      0.00000
    115      20.2027      0.00000
    116      20.2903      0.00000
    117      20.4478      0.00000
    118      20.8024      0.00000
    119      20.8924      0.00000
    120      21.1668      0.00000

 k-point    24 :      -0.3333    0.4444    0.0000
  band No.  band energies     occupation 
      1     -15.7483      2.00000
      2     -15.5373      2.00000
      3     -15.2780      2.00000
      4     -15.1652      2.00000
      5      -8.8104      2.00000
      6      -8.4194      2.00000
      7      -7.7634      2.00000
      8      -7.6505      2.00000
      9      -7.1931      2.00000
     10      -6.9386      2.00000
     11      -6.2892      2.00000
     12      -6.2392      2.00000
     13      -5.0778      2.00000
     14      -4.9062      2.00000
     15      -4.7550      2.00000
     16      -4.6940      2.00000
     17      -3.7366      2.00000
     18      -3.6644      2.00000
     19      -0.9100      0.00000
     20      -0.5539      0.00000
     21      -0.3584      0.00000
     22       0.1504      0.00000
     23       0.3297      0.00000
     24       0.8691      0.00000
     25       1.1943      0.00000
     26       1.7960      0.00000
     27       3.5103      0.00000
     28       4.0792      0.00000
     29       4.9167      0.00000
     30       5.0236      0.00000
     31       5.1238      0.00000
     32       5.7920      0.00000
     33       5.9967      0.00000
     34       6.0861      0.00000
     35       6.1207      0.00000
     36       6.3764      0.00000
     37       6.3923      0.00000
     38       6.7598      0.00000
     39       6.8145      0.00000
     40       7.1751      0.00000
     41       7.2873      0.00000
     42       7.3991      0.00000
     43       7.5683      0.00000
     44       7.8340      0.00000
     45       7.9331      0.00000
     46       8.3361      0.00000
     47       8.6291      0.00000
     48       8.8394      0.00000
     49       8.9767      0.00000
     50       9.5251      0.00000
     51       9.6127      0.00000
     52       9.9233      0.00000
     53      10.3781      0.00000
     54      10.4039      0.00000
     55      10.4537      0.00000
     56      10.5391      0.00000
     57      10.6669      0.00000
     58      10.7067      0.00000
     59      11.0337      0.00000
     60      11.0874      0.00000
     61      11.1414      0.00000
     62      11.3196      0.00000
     63      11.4881      0.00000
     64      11.6943      0.00000
     65      12.0039      0.00000
     66      12.1261      0.00000
     67      12.2433      0.00000
     68      12.4836      0.00000
     69      12.6096      0.00000
     70      12.7504      0.00000
     71      13.0857      0.00000
     72      13.3212      0.00000
     73      13.4427      0.00000
     74      13.6406      0.00000
     75      13.9263      0.00000
     76      13.9544      0.00000
     77      14.2640      0.00000
     78      14.4822      0.00000
     79      14.6122      0.00000
     80      14.7510      0.00000
     81      14.8472      0.00000
     82      14.9535      0.00000
     83      15.0223      0.00000
     84      15.1475      0.00000
     85      15.2344      0.00000
     86      15.3717      0.00000
     87      15.4749      0.00000
     88      15.6757      0.00000
     89      15.7188      0.00000
     90      15.9996      0.00000
     91      16.1088      0.00000
     92      16.3640      0.00000
     93      16.4640      0.00000
     94      16.5608      0.00000
     95      16.7409      0.00000
     96      16.9666      0.00000
     97      17.1300      0.00000
     98      17.2917      0.00000
     99      17.4350      0.00000
    100      17.5434      0.00000
    101      17.8663      0.00000
    102      18.0412      0.00000
    103      18.1233      0.00000
    104      18.2958      0.00000
    105      18.3391      0.00000
    106      18.8158      0.00000
    107      18.9724      0.00000
    108      19.1686      0.00000
    109      19.3434      0.00000
    110      19.4635      0.00000
    111      19.6097      0.00000
    112      19.9159      0.00000
    113      20.0047      0.00000
    114      20.2605      0.00000
    115      20.3514      0.00000
    116      20.6120      0.00000
    117      20.9814      0.00000
    118      21.0620      0.00000
    119      21.1370      0.00000
    120      21.2778      0.00000

 k-point    25 :      -0.2222    0.4444    0.0000
  band No.  band energies     occupation 
      1     -15.8089      2.00000
      2     -15.5900      2.00000
      3     -15.2907      2.00000
      4     -15.1794      2.00000
      5      -8.4550      2.00000
      6      -8.1579      2.00000
      7      -7.6967      2.00000
      8      -7.5923      2.00000
      9      -7.1210      2.00000
     10      -6.7144      2.00000
     11      -6.4396      2.00000
     12      -6.3575      2.00000
     13      -5.7492      2.00000
     14      -5.5874      2.00000
     15      -4.5463      2.00000
     16      -4.4736      2.00000
     17      -3.7664      2.00000
     18      -3.6256      2.00000
     19      -0.9519      0.00000
     20      -0.5504      0.00000
     21      -0.5430      0.00000
     22      -0.1007      0.00000
     23       0.1819      0.00000
     24       0.4657      0.00000
     25       1.3651      0.00000
     26       2.0608      0.00000
     27       4.3571      0.00000
     28       4.7044      0.00000
     29       4.9990      0.00000
     30       5.1620      0.00000
     31       5.2516      0.00000
     32       5.7841      0.00000
     33       5.8940      0.00000
     34       6.0660      0.00000
     35       6.2348      0.00000
     36       6.3645      0.00000
     37       6.4498      0.00000
     38       6.6257      0.00000
     39       6.7989      0.00000
     40       6.8607      0.00000
     41       7.1297      0.00000
     42       7.4911      0.00000
     43       7.8846      0.00000
     44       8.0225      0.00000
     45       8.2415      0.00000
     46       8.4392      0.00000
     47       8.5756      0.00000
     48       8.7891      0.00000
     49       9.1784      0.00000
     50       9.1954      0.00000
     51       9.4694      0.00000
     52       9.5200      0.00000
     53       9.7926      0.00000
     54       9.8772      0.00000
     55      10.0540      0.00000
     56      10.6955      0.00000
     57      10.7918      0.00000
     58      11.0127      0.00000
     59      11.1965      0.00000
     60      11.9862      0.00000
     61      12.0210      0.00000
     62      12.0362      0.00000
     63      12.2917      0.00000
     64      12.3465      0.00000
     65      12.3700      0.00000
     66      12.4097      0.00000
     67      12.4946      0.00000
     68      12.5763      0.00000
     69      12.6991      0.00000
     70      12.7100      0.00000
     71      12.7678      0.00000
     72      13.1079      0.00000
     73      13.1510      0.00000
     74      13.2315      0.00000
     75      13.3463      0.00000
     76      13.5232      0.00000
     77      13.7077      0.00000
     78      13.7782      0.00000
     79      13.8378      0.00000
     80      13.9736      0.00000
     81      14.0552      0.00000
     82      14.5309      0.00000
     83      14.6029      0.00000
     84      14.8774      0.00000
     85      14.9060      0.00000
     86      14.9532      0.00000
     87      15.1717      0.00000
     88      15.4251      0.00000
     89      15.5837      0.00000
     90      15.6654      0.00000
     91      15.7019      0.00000
     92      16.0873      0.00000
     93      16.0930      0.00000
     94      16.5245      0.00000
     95      16.5932      0.00000
     96      16.8472      0.00000
     97      16.8799      0.00000
     98      17.2257      0.00000
     99      17.4623      0.00000
    100      17.5161      0.00000
    101      17.8128      0.00000
    102      18.1142      0.00000
    103      18.1541      0.00000
    104      18.2870      0.00000
    105      18.5134      0.00000
    106      18.6736      0.00000
    107      18.7865      0.00000
    108      19.1028      0.00000
    109      19.2520      0.00000
    110      19.3888      0.00000
    111      19.5843      0.00000
    112      19.7113      0.00000
    113      19.9683      0.00000
    114      20.1088      0.00000
    115      20.3922      0.00000
    116      20.5713      0.00000
    117      20.7700      0.00000
    118      20.8458      0.00000
    119      20.9854      0.00000
    120      21.0850      0.00000


--------------------------------------------------------------------------------------------------------


 soft charge-density along one line, spin component           1
         0         1         2         3         4         5         6         7         8         9
 total charge-density along one line
 
 pseudopotential strength for first ion, spin component:           1
 -9.892  -0.000   0.000  -0.000  -0.000 -10.076  -0.000   0.000
 -0.000  -9.892  -0.000  -0.000  -0.000  -0.000 -10.076  -0.000
  0.000  -0.000  -9.871   0.000  -0.000   0.000  -0.000 -10.055
 -0.000  -0.000   0.000  -9.892  -0.000  -0.000  -0.000   0.000
 -0.000  -0.000  -0.000  -0.000  -9.892  -0.000  -0.000  -0.000
-10.076  -0.000   0.000  -0.000  -0.000 -10.249  -0.000   0.000
 -0.000 -10.076  -0.000  -0.000  -0.000  -0.000 -10.250  -0.000
  0.000  -0.000 -10.055   0.000  -0.000   0.000  -0.000 -10.229
 -0.000  -0.000   0.000 -10.076  -0.000  -0.000  -0.000   0.000
 -0.000  -0.000  -0.000  -0.000 -10.076  -0.000  -0.000  -0.000
  0.000   0.000  -0.005  -0.000  -0.000   0.000   0.000  -0.005
  0.000   0.000  -0.010  -0.000  -0.000   0.000   0.000  -0.010
  0.000  -0.000   0.000   0.000  -0.007   0.000  -0.000   0.000
  0.000  -0.000  -0.000   0.000  -0.000   0.000  -0.000  -0.000
 -0.007   0.000  -0.000  -0.000   0.000  -0.007   0.000  -0.000
  0.000  -0.000   0.000   0.000  -0.008   0.000  -0.000   0.000
  0.000  -0.000  -0.000   0.000  -0.000   0.000  -0.000  -0.000
 -0.008   0.000  -0.000  -0.000   0.000  -0.008   0.000  -0.000
 total augmentation occupancy for first ion, spin component:           1
  2.817   0.000   0.000   0.000   0.000  -3.439  -0.000   0.000  -0.000  -0.000   0.000  -0.000  -0.000  -0.000   0.411   0.000
  0.000   4.503  -0.000  -0.000   0.000   0.000  -5.787   0.000   0.000  -0.000   0.000   0.000   0.000   0.000   0.000  -0.000
  0.000  -0.000   1.884   0.000  -0.000   0.000   0.000  -2.190  -0.000  -0.000  -0.093   0.019   0.000   0.000  -0.000  -0.000
  0.000  -0.000   0.000   4.503   0.000  -0.000   0.000  -0.000  -5.787   0.000  -0.000  -0.000   0.000  -0.000   0.000  -0.000
  0.000   0.000  -0.000   0.000   2.817  -0.000  -0.000  -0.000  -0.000  -3.439  -0.000   0.000   0.411   0.000  -0.000  -0.059
 -3.439   0.000   0.000  -0.000  -0.000   4.957   0.000  -0.000   0.000   0.000  -0.000   0.000   0.000  -0.000  -0.479  -0.000
 -0.000  -5.787   0.000   0.000  -0.000   0.000   7.882  -0.000  -0.000   0.000  -0.000  -0.000  -0.000  -0.000  -0.000   0.000
  0.000   0.000  -2.190  -0.000  -0.000  -0.000  -0.000   3.468   0.000   0.000   0.224  -0.028  -0.000  -0.000   0.000   0.000
 -0.000   0.000  -0.000  -5.787  -0.000   0.000  -0.000   0.000   7.882   0.000   0.000   0.000  -0.000   0.000  -0.000   0.000
 -0.000  -0.000  -0.000   0.000  -3.439   0.000   0.000   0.000   0.000   4.957   0.000  -0.000  -0.479   0.000   0.000   0.065
  0.000   0.000  -0.093  -0.000  -0.000  -0.000  -0.000   0.224   0.000   0.000   1.720  -0.117  -0.000  -0.000   0.000   0.000
 -0.000   0.000   0.019  -0.000   0.000   0.000  -0.000  -0.028   0.000  -0.000  -0.117   0.010   0.000   0.000  -0.000  -0.000
 -0.000   0.000   0.000   0.000   0.411   0.000  -0.000  -0.000  -0.000  -0.479  -0.000   0.000   0.349  -0.000  -0.000  -0.043
 -0.000   0.000   0.000  -0.000   0.000  -0.000  -0.000  -0.000   0.000   0.000  -0.000   0.000  -0.000   0.420   0.000   0.000
  0.411   0.000  -0.000   0.000  -0.000  -0.479  -0.000   0.000  -0.000   0.000   0.000  -0.000  -0.000   0.000   0.349   0.000
  0.000  -0.000  -0.000  -0.000  -0.059  -0.000   0.000   0.000   0.000   0.065   0.000  -0.000  -0.043   0.000   0.000   0.006
  0.000  -0.000   0.000   0.000  -0.000   0.000   0.000   0.000  -0.000  -0.000   0.000  -0.000   0.000  -0.051  -0.000  -0.000
 -0.059  -0.000   0.000  -0.000   0.000   0.065   0.000  -0.000   0.000  -0.000  -0.000   0.000   0.000  -0.000  -0.043  -0.000


------------------------ aborting loop because EDIFF is reached ----------------------------------------


 


 total charge     
 
# of ion       s       p       d       tot
------------------------------------------
    1        0.415   0.595   4.386   5.395
    2        0.560   0.698   4.221   5.478
    3        1.364   2.330   0.000   3.694
    4        1.364   2.329   0.000   3.694
    5        1.359   2.356   0.000   3.714
    6        1.359   2.356   0.000   3.714
--------------------------------------------------
tot          6.420  10.663   8.606  25.689
 
    CHARGE:  cpu time    0.1535: real time    0.1535
    FORLOC:  cpu time    0.0486: real time    0.0486
    FORNL :  cpu time    0.4408: real time    0.4408
    STRESS:  cpu time    2.0589: real time    2.0590
    FORCOR:  cpu time    0.4044: real time    0.4044
    FORHAR:  cpu time    0.1081: real time    0.1081
    MIXING:  cpu time    0.0598: real time    0.0598
    OFIELD:  cpu time    0.0001: real time    0.0000

  FORCE on cell =-STRESS in cart. coord.  units (eV):
  Direction    XX          YY          ZZ          XY          YZ          ZX
  --------------------------------------------------------------------------------------
  Alpha Z    28.72771    28.72771    28.72771
  Ewald   27059.29532 27059.29527-28193.36770    -0.00004     0.00000    -0.00000
  Hartree 27243.30599 27243.30599-27168.55977    -0.00001     0.00000    -0.00000
  E(xc)    -139.52821  -139.52821  -140.77103     0.00000     0.00000    -0.00000
  Local  -54872.42371-54872.42361 54780.85038     0.00004    -0.00000     0.00000
  n-local   257.48996   259.37015   268.64461    -0.54282     0.00112     0.00065
  augment   -54.92189   -54.92195   -56.92807     0.00000     0.00000    -0.00000
  Kinetic   469.13007   484.17410   481.36142    -4.34283    -0.00615    -0.00355
  Fock        0.00000     0.00000     0.00000     0.00000     0.00000     0.00000
  -------------------------------------------------------------------------------------
  Total      -0.46266    -0.46266    -0.04245    -0.00000     0.00000    -0.00000
  in kB      -1.75782    -1.75784    -0.16128    -0.00001     0.00000    -0.00000
  external pressure =       -1.23 kB  Pullay stress =        0.00 kB


 VOLUME and BASIS-vectors are now :
 -----------------------------------------------------------------------------
  energy-cutoff  :      400.00
  volume of cell :      421.69
      direct lattice vectors                 reciprocal lattice vectors
     1.595000000 -2.762621038  0.000000000     0.313479624 -0.180987545  0.000000000
     1.595000000  2.762621038  0.000000000     0.313479624  0.180987545  0.000000000
     0.000000000  0.000000000 47.850000000     0.000000000  0.000000000  0.020898642

  length of vectors
     3.190000000  3.190000000 47.850000000     0.361975090  0.361975090  0.020898642


 FORCES acting on ions
    electron-ion (+dipol)            ewald-force                    non-local-force                 convergence-correction
 -----------------------------------------------------------------------------------------------
   0.856E-05 -.487E-05 0.765E+03   -.935E-05 0.540E-05 -.765E+03   -.240E-05 0.139E-05 0.114E-02   0.229E-09 -.132E-09 0.107E-06
   -.872E-05 0.504E-05 -.765E+03   0.925E-05 -.534E-05 0.765E+03   0.281E-05 -.162E-05 -.158E-02   -.452E-10 0.260E-10 0.356E-06
   -.475E-05 0.278E-05 0.133E+04   0.468E-05 -.270E-05 -.133E+04   0.172E-05 -.992E-06 0.475E+01   -.858E-09 0.495E-09 0.139E-05
   -.486E-05 0.279E-05 0.201E+03   0.469E-05 -.271E-05 -.197E+03   0.171E-05 -.990E-06 -.475E+01   -.840E-09 0.485E-09 -.626E-06
   0.482E-05 -.277E-05 -.202E+03   -.463E-05 0.268E-05 0.197E+03   -.182E-05 0.105E-05 0.469E+01   -.234E-09 0.135E-09 -.720E-06
   0.462E-05 -.277E-05 -.133E+04   -.462E-05 0.267E-05 0.133E+04   -.181E-05 0.105E-05 -.469E+01   0.125E-08 -.723E-09 -.116E-06
 -----------------------------------------------------------------------------------------------
   -.328E-06 0.187E-06 0.205E-03   0.253E-13 -.157E-13 0.000E+00   0.206E-06 -.119E-06 -.575E-03   -.497E-09 0.286E-09 0.390E-06
 
 
 POSITION                                       TOTAL-FORCE (eV/Angst)
 -----------------------------------------------------------------------------------
      0.00000      0.00000      1.01253        -0.000003      0.000002     -0.000079
      1.59500     -0.92087      8.43280         0.000003     -0.000002     -0.000190
      1.59500     -0.92087     47.30132         0.000002     -0.000001     -0.000040
      1.59500     -0.92087      2.57382         0.000002     -0.000001      0.000017
      0.00000      0.00000      6.86579        -0.000002      0.000001     -0.000363
      0.00000      0.00000      9.99970        -0.000002      0.000001      0.000656
 -----------------------------------------------------------------------------------
    total drift:                               -0.000000      0.000000     -0.000370


--------------------------------------------------------------------------------------------------------



  FREE ENERGIE OF THE ION-ELECTRON SYSTEM (eV)
  ---------------------------------------------------
  free  energy   TOTEN  =       -45.51406339 eV

  energy  without entropy=      -45.51406339  energy(sigma->0) =      -45.51406339
 


--------------------------------------------------------------------------------------------------------


    POTLOK:  cpu time    0.4113: real time    0.4122


--------------------------------------------------------------------------------------------------------


 writing wavefunctions
     LOOP+:  cpu time  460.2123: real time  766.0858
    4ORBIT:  cpu time    0.0000: real time    0.0000
 


 total charge     
 
# of ion       s       p       d       tot
------------------------------------------
    1        0.415   0.595   4.386   5.395
    2        0.560   0.698   4.221   5.478
    3        1.364   2.330   0.000   3.694
    4        1.364   2.329   0.000   3.694
    5        1.359   2.356   0.000   3.714
    6        1.359   2.356   0.000   3.714
--------------------------------------------------
tot          6.420  10.663   8.606  25.689
 

 total amount of memory used by VASP MPI-rank0   294897. kBytes
=======================================================================

   base      :      30000. kBytes
   nonl-proj :      84073. kBytes
   fftplans  :      17258. kBytes
   grid      :      38913. kBytes
   one-center:         93. kBytes
   wavefun   :     124560. kBytes
 
  
  
 General timing and accounting informations for this job:
 ========================================================
  
                  Total CPU time used (sec):      465.631
                            User time (sec):      456.106
                          System time (sec):        9.525
                         Elapsed time (sec):      772.935
  
                   Maximum memory used (kb):      398292.
                   Average memory used (kb):           0.
  
                          Minor page faults:       297543
                          Major page faults:            0
                 Voluntary context switches:        75992
