 
             +---------------------------------------------------+
             |                                                   |
             |                   WANNIER90                       |
             |                                                   |
             +---------------------------------------------------+
             |                                                   |
             |        Welcome to the Maximally-Localized         |
             |        Generalized Wannier Functions code         |
             |            http://www.wannier.org                 |
             |                                                   |
             |                                                   |
             |  Wannier90 Developer Group:                       |
             |    Giovanni Pizzi    (EPFL)                       |
             |    Valerio Vitale    (Cambridge)                  |
             |    David Vanderbilt  (Rutgers University)         |
             |    Nicola Marzari    (EPFL)                       |
             |    Ivo Souza         (Universidad del Pais Vasco) |
             |    Arash A. Mostofi  (Imperial College London)    |
             |    Jonathan R. Yates (University of Oxford)       |
             |                                                   |
             |  For the full list of Wannier90 3.x authors,      |
             |  please check the code documentation and the      |
             |  README on the GitHub page of the code            |
             |                                                   |
             |                                                   |
             |  Please cite                                      |
             |                                                   |
             |  [ref] "An updated version of Wannier90:          |
             |        A Tool for Obtaining Maximally Localised   |
             |        Wannier Functions", A. A. Mostofi,         |
             |        J. R. Yates, G. Pizzi, Y. S. Lee,          |
             |        I. Souza, D. Vanderbilt and N. Marzari,    |
             |        Comput. Phys. Commun. 185, 2309 (2014)     |
             |        http://dx.doi.org/10.1016/j.cpc.2014.05.003|
             |                                                   |
             |  in any publications arising from the use of      |
             |  this code. For the method please cite            |
             |                                                   |
             |  [ref] "Maximally Localized Generalised Wannier   |
             |         Functions for Composite Energy Bands"     |
             |         N. Marzari and D. Vanderbilt              |
             |         Phys. Rev. B 56 12847 (1997)              |
             |                                                   |
             |  [ref] "Maximally Localized Wannier Functions     |
             |         for Entangled Energy Bands"               |
             |         I. Souza, N. Marzari and D. Vanderbilt    |
             |         Phys. Rev. B 65 035109 (2001)             |
             |                                                   |
             |                                                   |
             | Copyright (c) 1996-2019                           |
             |        The Wannier90 Developer Group and          |
             |        individual contributors                    |
             |                                                   |
             |      Release: 3.0.0       27th February 2019      |
             |                                                   |
             | This program is free software; you can            |
             | redistribute it and/or modify it under the terms  |
             | of the GNU General Public License as published by |
             | the Free Software Foundation; either version 2 of |
             | the License, or (at your option) any later version|
             |                                                   |
             | This program is distributed in the hope that it   |
             | will be useful, but WITHOUT ANY WARRANTY; without |
             | even the implied warranty of MERCHANTABILITY or   |
             | FITNESS FOR A PARTICULAR PURPOSE. See the GNU     |
             | General Public License for more details.          |
             |                                                   |
             | You should have received a copy of the GNU General|
             | Public License along with this program; if not,   |
             | write to the Free Software Foundation, Inc.,      |
             | 675 Mass Ave, Cambridge, MA 02139, USA.           |
             |                                                   |
             +---------------------------------------------------+
             |    Execution started on  9Mar2019 at 23:48:52     |
             +---------------------------------------------------+
 
 ******************************************************************************
 * -> Using CODATA 2006 constant values                                       *
 *    (http://physics.nist.gov/cuu/Constants/index.html)                      *
 * -> Using Bohr value from CODATA                                            *
 ******************************************************************************
 

 Running in serial (with parallel executable)
 
                                    ------
                                    SYSTEM
                                    ------
 
                              Lattice Vectors (Ang)
                    a_1     1.595000  -2.762621   0.000000
                    a_2     1.595000   2.762621   0.000000
                    a_3     0.000000   0.000000  47.850000
 
                   Unit Cell Volume:     421.69061  (Ang^3)
 
                        Reciprocal-Space Vectors (Ang^-1)
                    b_1     1.969651  -1.137178   0.000000
                    b_2     1.969651   1.137178   0.000000
                    b_3     0.000000   0.000000   0.131310
  
 *----------------------------------------------------------------------------*
 |   Site       Fractional Coordinate          Cartesian Coordinate (Ang)     |
 +----------------------------------------------------------------------------+
 | Mo   1   0.00000   0.00000   0.02116   |    0.00000   0.00000   1.01253    |
 | W    1   0.66667   0.33333   0.17623   |    1.59500  -0.92087   8.43280    |
 | S    1   0.66667   0.33333   0.98853   |    1.59500  -0.92087  47.30132    |
 | S    2   0.66667   0.33333   0.05379   |    1.59500  -0.92087   2.57382    |
 | S    3   0.00000   0.00000   0.14349   |    0.00000   0.00000   6.86579    |
 | S    4   0.00000   0.00000   0.20898   |    0.00000   0.00000   9.99970    |
 *----------------------------------------------------------------------------*
                                ------------
                                K-POINT GRID
                                ------------
  
             Grid size =  9 x  9 x  1      Total points =   81
  
  
 *---------------------------------- MAIN ------------------------------------*
 |  Number of Wannier Functions               :                22             |
 |  Number of Objective Wannier Functions     :                22             |
 |  Number of input Bloch states              :                22             |
 |  Output verbosity (1=low, 5=high)          :                 1             |
 |  Timing Level (1=low, 5=high)              :                 1             |
 |  Optimisation (0=memory, 3=speed)          :                 3             |
 |  Length Unit                               :               Ang             |
 |  Post-processing setup (write *.nnkp)      :                 F             |
 |  Using Gamma-only branch of algorithms     :                 F             |
 |  Wavefunction (UNK) file-type              :       unformatted             |
 |  Wavefunction spin channel                 :                up             |
 *----------------------------------------------------------------------------*
 *------------------------------- WANNIERISE ---------------------------------*
 |  Total number of iterations                :               100             |
 |  Number of CG steps before reset           :                 5             |
 |  Trial step length for line search         :             2.000             |
 |  Convergence tolerence                     :         0.100E-11             |
 |  Convergence window                        :                -1             |
 |  Iterations between writing output         :                 1             |
 |  Iterations between backing up to disk     :               100             |
 |  Write r^2_nm to file                      :                 F             |
 |  Write xyz WF centres to file              :                 F             |
 |  Write on-site energies <0n|H|0n> to file  :                 F             |
 |  Use guiding centre to control phases      :                 F             |
 |  Use phases for initial projections        :                 F             |
 *----------------------------------------------------------------------------*
 *-------------------------------- PLOTTING ----------------------------------*
 |  Plotting Wannier functions                :                 T             |
 |   Size of supercell for plotting           :     3x    3x    3             |
 |   Plotting mode (molecule or crystal)      :           crystal             |
 |   Plotting format                          :          xcrysden             |
 *----------------------------------------------------------------------------*
 |  Plotting Hamiltonian in WF basis          :                 T             |
 *----------------------------------------------------------------------------*
 Time to read parameters        0.018 (sec)

 *---------------------------------- K-MESH ----------------------------------*
 +----------------------------------------------------------------------------+
 |                    Distance to Nearest-Neighbour Shells                    |
 |                    ------------------------------------                    |
 |          Shell             Distance (Ang^-1)          Multiplicity         |
 |          -----             -----------------          ------------         |
 |             1                   0.131310                      2            |
 |             2                   0.252706                      6            |
 |             3                   0.262620                      2            |
 |             4                   0.284786                     12            |
 |             5                   0.364458                     12            |
 |             6                   0.393930                      2            |
 |             7                   0.437700                      6            |
 |             8                   0.456972                     12            |
 |             9                   0.468019                     12            |
 |            10                   0.505413                      6            |
 |            11                   0.510442                     12            |
 |            12                   0.522192                     12            |
 |            13                   0.525240                      2            |
 |            14                   0.569571                     12            |
 |            15                   0.582870                     12            |
 |            16                   0.588865                     12            |
 |            17                   0.640799                     12            |
 |            18                   0.656550                      2            |
 |            19                   0.668598                     12            |
 |            20                   0.681370                     24            |
 |            21                   0.683709                     12            |
 |            22                   0.703505                     12            |
 |            23                   0.718326                     24            |
 |            24                   0.728916                     12            |
 |            25                   0.758119                      6            |
 |            26                   0.769407                     12            |
 |            27                   0.776018                     24            |
 |            28                   0.789075                     12            |
 |            29                   0.802318                     12            |
 |            30                   0.828553                     12            |
 |            31                   0.850236                     24            |
 |            32                   0.854357                     12            |
 |            33                   0.875400                      6            |
 |            34                   0.885194                     12            |
 |            35                   0.911145                     12            |
 |            36                   0.913945                     12            |
 +----------------------------------------------------------------------------+
 | The b-vectors are chosen automatically                                     |
 | The following shells are used:   1,  2                                     |
 +----------------------------------------------------------------------------+
 |                        Shell   # Nearest-Neighbours                        |
 |                        -----   --------------------                        |
 |                          1               2                                 |
 |                          2               6                                 |
 +----------------------------------------------------------------------------+
 | Completeness relation is fully satisfied [Eq. (B1), PRB 56, 12847 (1997)]  |
 +----------------------------------------------------------------------------+
 |                  b_k Vectors (Ang^-1) and Weights (Ang^2)                  |
 |                  ----------------------------------------                  |
 |            No.         b_k(x)      b_k(y)      b_k(z)        w_b           |
 |            ---        --------------------------------     --------        |
 |             1         0.000000    0.000000    0.131310    28.998408        |
 |             2         0.000000    0.000000   -0.131310    28.998408        |
 |             3         0.218850   -0.126353    0.000000     5.219713        |
 |             4         0.218850    0.126353    0.000000     5.219713        |
 |             5         0.000000   -0.252706    0.000000     5.219713        |
 |             6        -0.218850    0.126353    0.000000     5.219713        |
 |             7        -0.218850   -0.126353    0.000000     5.219713        |
 |             8         0.000000    0.252706    0.000000     5.219713        |
 +----------------------------------------------------------------------------+
 |                           b_k Directions (Ang^-1)                          |
 |                           -----------------------                          |
 |            No.           x           y           z                         |
 |            ---        --------------------------------                     |
 |             1         0.000000    0.000000    0.131310                     |
 |             2         0.218850   -0.126353    0.000000                     |
 |             3         0.218850    0.126353    0.000000                     |
 |             4         0.000000   -0.252706    0.000000                     |
 +----------------------------------------------------------------------------+
  
 Time to get kmesh              0.082 (sec)
 *============================================================================*
 |                              MEMORY ESTIMATE                               |
 |         Maximum RAM allocated during each phase of the calculation         |
 *============================================================================*
 |                            Wannierise:           12.60 Mb                  |
 |                          plot_wannier:           12.60 Mb                  |
 *----------------------------------------------------------------------------*
  
 Starting a new Wannier90 calculation ...


 Reading overlaps from wannier90.mmn    : File generated by VASP: MoS2_ml

 Reading projections from wannier90.amn : File generated by VASP: MoS2_ml

 Time to read overlaps          0.338 (sec)

 Writing checkpoint file wannier90.chk... done

 
 *------------------------------- WANNIERISE ---------------------------------*
 +--------------------------------------------------------------------+<-- CONV
 | Iter  Delta Spread     RMS Gradient      Spread (Ang^2)      Time  |<-- CONV
 +--------------------------------------------------------------------+<-- CONV
 
 ------------------------------------------------------------------------------
 Initial State
  WF centre and spread    1  (  0.000000, -0.000472,  1.013964 )     1.52749345
  WF centre and spread    2  (  0.000000, -0.037035,  1.012816 )     1.80146250
  WF centre and spread    3  (  0.000000,  0.036242,  1.012816 )     1.78166045
  WF centre and spread    4  (  0.000000, -0.091004,  1.012637 )     1.64986939
  WF centre and spread    5  (  0.000000,  0.086335,  1.012633 )     1.65175120
  WF centre and spread    6  (  1.595000, -0.920545,  8.431185 )     1.87460568
  WF centre and spread    7  (  1.595000, -0.881786,  8.432458 )     2.22049485
  WF centre and spread    8  (  1.595000, -0.957982,  8.432458 )     2.19079441
  WF centre and spread    9  (  1.595000, -0.808373,  8.432642 )     2.01796818
  WF centre and spread   10  (  1.595000, -1.027856,  8.432645 )     2.02395174
  WF centre and spread   11  (  1.595000, -0.921074, -0.639484 )     1.97129862
  WF centre and spread   12  (  1.595000, -0.905513, -0.478825 )     1.91018056
  WF centre and spread   13  (  1.595000, -0.933192, -0.480728 )     1.88674916
  WF centre and spread   14  (  1.595000, -0.921048,  2.666520 )     1.98904183
  WF centre and spread   15  (  1.595000, -0.905902,  2.504619 )     1.91161771
  WF centre and spread   16  (  1.595000, -0.932803,  2.506519 )     1.88832084
  WF centre and spread   17  ( -0.000000,  0.000230,  6.771975 )     2.17990774
  WF centre and spread   18  (  0.000000, -0.032572,  6.959253 )     2.12738736
  WF centre and spread   19  (  0.000000,  0.028636,  6.956975 )     2.09653564
  WF centre and spread   20  ( -0.000000,  0.000243, 10.091951 )     2.16459572
  WF centre and spread   21  (  0.000000, -0.033195,  9.905796 )     2.12893475
  WF centre and spread   22  (  0.000000,  0.029240,  9.908079 )     2.09795889
  Sum of centres and spreads ( 17.544998,-10.129427,103.898903 )    43.09258067
 
      0     0.431E+02     0.0000000000       43.0925804096       0.00  <-- CONV
        O_D=      0.1628523 O_OD=      5.9574003 O_TOT=     43.0925804 <-- SPRD
 ------------------------------------------------------------------------------
 Cycle:      1
  WF centre and spread    1  (  0.000000, -0.000453,  1.012584 )     1.46613489
  WF centre and spread    2  (  0.000000, -0.040438,  1.012733 )     1.74272379
  WF centre and spread    3  (  0.000000,  0.039830,  1.012738 )     1.73348868
  WF centre and spread    4  (  0.000000, -0.096956,  1.012660 )     1.59334692
  WF centre and spread    5  (  0.000000,  0.093703,  1.012657 )     1.59546515
  WF centre and spread    6  (  1.595000, -0.920447,  8.432829 )     1.80977816
  WF centre and spread    7  (  1.595000, -0.877629,  8.432512 )     2.15046743
  WF centre and spread    8  (  1.595000, -0.962834,  8.432506 )     2.13283448
  WF centre and spread    9  (  1.595000, -0.801531,  8.432647 )     1.95342870
  WF centre and spread   10  (  1.595000, -1.036193,  8.432649 )     1.95908809
  WF centre and spread   11  (  1.595000, -0.920739, -0.644360 )     1.90065556
  WF centre and spread   12  (  1.595000, -0.907952, -0.490226 )     1.80882921
  WF centre and spread   13  (  1.595000, -0.931903, -0.491659 )     1.79310068
  WF centre and spread   14  (  1.595000, -0.920736,  2.668602 )     1.91231958
  WF centre and spread   15  (  1.595000, -0.908268,  2.515760 )     1.80962202
  WF centre and spread   16  (  1.595000, -0.931554,  2.517207 )     1.79399439
  WF centre and spread   17  ( -0.000000, -0.000194,  6.768257 )     2.08225030
  WF centre and spread   18  (  0.000000, -0.029161,  6.945860 )     1.99939087
  WF centre and spread   19  (  0.000000,  0.026777,  6.944104 )     1.97807433
  WF centre and spread   20  ( -0.000000, -0.000207, 10.097906 )     2.07730781
  WF centre and spread   21  (  0.000000, -0.029686,  9.919382 )     2.00157460
  WF centre and spread   22  (  0.000000,  0.027333,  9.921127 )     1.98016523
  Sum of centres and spreads ( 17.544998,-10.129238,103.898473 )    41.27404087
 
      1    -0.182E+01     1.5776511815       41.2740406123       0.07  <-- CONV
        O_D=      0.0940366 O_OD=      4.2076762 O_TOT=     41.2740406 <-- SPRD
 Delta: O_D= -0.6881569E-01 O_OD= -0.1749724E+01 O_TOT= -0.1818540E+01 <-- DLTA
 ------------------------------------------------------------------------------
 Cycle:      2
  WF centre and spread    1  (  0.000000, -0.000259,  1.012475 )     1.45448476
  WF centre and spread    2  (  0.000000, -0.042163,  1.012623 )     1.73830629
  WF centre and spread    3  (  0.000000,  0.041378,  1.012622 )     1.73229072
  WF centre and spread    4  (  0.000000, -0.101260,  1.012556 )     1.59448458
  WF centre and spread    5  (  0.000000,  0.098336,  1.012561 )     1.59757671
  WF centre and spread    6  (  1.595000, -0.920624,  8.432976 )     1.80680102
  WF centre and spread    7  (  1.595000, -0.875334,  8.432658 )     2.15132290
  WF centre and spread    8  (  1.595000, -0.965038,  8.432657 )     2.13943039
  WF centre and spread    9  (  1.595000, -0.796335,  8.432753 )     1.96256151
  WF centre and spread   10  (  1.595000, -1.041645,  8.432743 )     1.96893348
  WF centre and spread   11  (  1.595000, -0.920670, -0.647571 )     1.84860880
  WF centre and spread   12  (  1.595000, -0.909307, -0.497576 )     1.75341605
  WF centre and spread   13  (  1.595000, -0.930812, -0.498457 )     1.74451410
  WF centre and spread   14  (  1.595000, -0.920667,  2.671536 )     1.85794697
  WF centre and spread   15  (  1.595000, -0.909609,  2.523049 )     1.75139356
  WF centre and spread   16  (  1.595000, -0.930505,  2.523963 )     1.74258382
  WF centre and spread   17  ( -0.000000, -0.000319,  6.764459 )     2.01549285
  WF centre and spread   18  (  0.000000, -0.027344,  6.936905 )     1.92360680
  WF centre and spread   19  (  0.000000,  0.025367,  6.935771 )     1.91072119
  WF centre and spread   20  ( -0.000000, -0.000323, 10.101941 )     2.01170708
  WF centre and spread   21  (  0.000000, -0.027879,  9.928422 )     1.92826792
  WF centre and spread   22  (  0.000000,  0.025907,  9.929528 )     1.91532556
  Sum of centres and spreads ( 17.544998,-10.129103,103.898593 )    40.54977708
 
      2    -0.724E+00     1.1442073032       40.5497768256       0.11  <-- CONV
        O_D=      0.0875416 O_OD=      3.4899074 O_TOT=     40.5497768 <-- SPRD
 Delta: O_D= -0.6494997E-02 O_OD= -0.7177688E+00 O_TOT= -0.7242638E+00 <-- DLTA
 ------------------------------------------------------------------------------
 Cycle:      3
  WF centre and spread    1  (  0.000000, -0.000056,  1.011983 )     1.45746126
  WF centre and spread    2  ( -0.000000, -0.043054,  1.012590 )     1.75231735
  WF centre and spread    3  (  0.000000,  0.042481,  1.012592 )     1.74631188
  WF centre and spread    4  (  0.000000, -0.104454,  1.012489 )     1.60539932
  WF centre and spread    5  (  0.000000,  0.102150,  1.012487 )     1.60808215
  WF centre and spread    6  (  1.595000, -0.920864,  8.433630 )     1.81964917
  WF centre and spread    7  (  1.595000, -0.873874,  8.432679 )     2.17341916
  WF centre and spread    8  (  1.595000, -0.966807,  8.432680 )     2.16307750
  WF centre and spread    9  (  1.595000, -0.792288,  8.432831 )     1.98326128
  WF centre and spread   10  (  1.595000, -1.046359,  8.432829 )     1.98849677
  WF centre and spread   11  (  1.595000, -0.920679, -0.649024 )     1.80947832
  WF centre and spread   12  (  1.595000, -0.910268, -0.502181 )     1.71491937
  WF centre and spread   13  (  1.595000, -0.930350, -0.502628 )     1.71071420
  WF centre and spread   14  (  1.595000, -0.920681,  2.672593 )     1.81241108
  WF centre and spread   15  (  1.595000, -0.910583,  2.527408 )     1.71055764
  WF centre and spread   16  (  1.595000, -0.930018,  2.527876 )     1.70615504
  WF centre and spread   17  ( -0.000000, -0.000326,  6.762921 )     1.95948397
  WF centre and spread   18  (  0.000000, -0.026076,  6.931464 )     1.86954716
  WF centre and spread   19  (  0.000000,  0.024700,  6.930873 )     1.86273552
  WF centre and spread   20  ( -0.000000, -0.000332, 10.103837 )     1.96002437
  WF centre and spread   21  (  0.000000, -0.026612,  9.934057 )     1.87563949
  WF centre and spread   22  (  0.000000,  0.025252,  9.934632 )     1.86901585
  Sum of centres and spreads ( 17.544998,-10.129098,103.898618 )    40.15815785
 
      3    -0.392E+00     0.9374243405       40.1581575933       0.15  <-- CONV
        O_D=      0.0870074 O_OD=      3.0988223 O_TOT=     40.1581576 <-- SPRD
 Delta: O_D= -0.5341700E-03 O_OD= -0.3910851E+00 O_TOT= -0.3916192E+00 <-- DLTA
 ------------------------------------------------------------------------------
 Cycle:      4
  WF centre and spread    1  (  0.000000,  0.000088,  1.011728 )     1.46949922
  WF centre and spread    2  ( -0.000000, -0.043719,  1.012556 )     1.76919443
  WF centre and spread    3  (  0.000000,  0.043529,  1.012558 )     1.76344180
  WF centre and spread    4  (  0.000000, -0.107331,  1.012438 )     1.61726115
  WF centre and spread    5  (  0.000000,  0.105817,  1.012436 )     1.61876727
  WF centre and spread    6  (  1.595000, -0.921045,  8.433964 )     1.84216993
  WF centre and spread    7  (  1.595000, -0.872635,  8.432672 )     2.19902548
  WF centre and spread    8  (  1.595000, -0.968588,  8.432673 )     2.18991830
  WF centre and spread    9  (  1.595000, -0.788576,  8.432896 )     2.00333153
  WF centre and spread   10  (  1.595000, -1.051023,  8.432895 )     2.00641273
  WF centre and spread   11  (  1.595000, -0.920715, -0.649420 )     1.77750327
  WF centre and spread   12  (  1.595000, -0.910970, -0.505077 )     1.68138077
  WF centre and spread   13  (  1.595000, -0.930226, -0.505235 )     1.68053784
  WF centre and spread   14  (  1.595000, -0.920722,  2.672672 )     1.77983598
  WF centre and spread   15  (  1.595000, -0.911285,  2.530183 )     1.67892656
  WF centre and spread   16  (  1.595000, -0.929893,  2.530359 )     1.67784153
  WF centre and spread   17  ( -0.000000, -0.000285,  6.762664 )     1.91822373
  WF centre and spread   18  (  0.000000, -0.025192,  6.928063 )     1.82652348
  WF centre and spread   19  (  0.000000,  0.024530,  6.927837 )     1.82424900
  WF centre and spread   20  ( -0.000000, -0.000295, 10.104429 )     1.91781624
  WF centre and spread   21  (  0.000000, -0.025720,  9.937575 )     1.83045540
  WF centre and spread   22  (  0.000000,  0.025079,  9.937786 )     1.82840396
  Sum of centres and spreads ( 17.544998,-10.129176,103.898651 )    39.90071960
 
      4    -0.257E+00     0.8159250096       39.9007193424       0.18  <-- CONV
        O_D=      0.0846880 O_OD=      2.8437035 O_TOT=     39.9007193 <-- SPRD
 Delta: O_D= -0.2319436E-02 O_OD= -0.2551188E+00 O_TOT= -0.2574383E+00 <-- DLTA
 ------------------------------------------------------------------------------
 Cycle:      5
  WF centre and spread    1  (  0.000000,  0.000141,  1.011619 )     1.48110385
  WF centre and spread    2  ( -0.000000, -0.044268,  1.012514 )     1.78100059
  WF centre and spread    3  (  0.000000,  0.044408,  1.012509 )     1.77642396
  WF centre and spread    4  (  0.000000, -0.109229,  1.012399 )     1.62586212
  WF centre and spread    5  (  0.000000,  0.108210,  1.012400 )     1.62652757
  WF centre and spread    6  (  1.595000, -0.921106,  8.434116 )     1.86126502
  WF centre and spread    7  (  1.595000, -0.871656,  8.432705 )     2.21697051
  WF centre and spread    8  (  1.595000, -0.970064,  8.432712 )     2.20965234
  WF centre and spread    9  (  1.595000, -0.786036,  8.432936 )     2.01664267
  WF centre and spread   10  (  1.595000, -1.054198,  8.432933 )     2.01809810
  WF centre and spread   11  (  1.595000, -0.920720, -0.649101 )     1.75983150
  WF centre and spread   12  (  1.595000, -0.911258, -0.506456 )     1.66035665
  WF centre and spread   13  (  1.595000, -0.930331, -0.506489 )     1.66128521
  WF centre and spread   14  (  1.595000, -0.920731,  2.672243 )     1.76215850
  WF centre and spread   15  (  1.595000, -0.911570,  2.531452 )     1.65865163
  WF centre and spread   16  (  1.595000, -0.930006,  2.531503 )     1.65926091
  WF centre and spread   17  ( -0.000000, -0.000281,  6.763062 )     1.89503347
  WF centre and spread   18  (  0.000000, -0.024842,  6.926513 )     1.79887192
  WF centre and spread   19  (  0.000000,  0.024706,  6.926446 )     1.79890022
  WF centre and spread   20  ( -0.000000, -0.000293, 10.104145 )     1.89400040
  WF centre and spread   21  (  0.000000, -0.025362,  9.939221 )     1.80187664
  WF centre and spread   22  (  0.000000,  0.025243,  9.939273 )     1.80224197
  Sum of centres and spreads ( 17.544998,-10.129244,103.898653 )    39.76601575
 
      5    -0.135E+00     0.6260056444       39.7660154985       0.22  <-- CONV
        O_D=      0.0837582 O_OD=      2.7099294 O_TOT=     39.7660155 <-- SPRD
 Delta: O_D= -0.9297621E-03 O_OD= -0.1337741E+00 O_TOT= -0.1347038E+00 <-- DLTA
 ------------------------------------------------------------------------------
 Cycle:      6
  WF centre and spread    1  (  0.000000,  0.000153,  1.011531 )     1.48810516
  WF centre and spread    2  ( -0.000000, -0.044658,  1.012482 )     1.78759525
  WF centre and spread    3  (  0.000000,  0.045007,  1.012478 )     1.78451375
  WF centre and spread    4  (  0.000000, -0.110209,  1.012376 )     1.63117849
  WF centre and spread    5  (  0.000000,  0.109385,  1.012377 )     1.63140664
  WF centre and spread    6  (  1.595000, -0.921116,  8.434237 )     1.87265195
  WF centre and spread    7  (  1.595000, -0.870993,  8.432734 )     2.22714573
  WF centre and spread    8  (  1.595000, -0.971059,  8.432740 )     2.22177419
  WF centre and spread    9  (  1.595000, -0.784654,  8.432960 )     2.02434553
  WF centre and spread   10  (  1.595000, -1.055826,  8.432958 )     2.02490974
  WF centre and spread   11  (  1.595000, -0.920702, -0.648768 )     1.75039599
  WF centre and spread   12  (  1.595000, -0.911313, -0.507118 )     1.64891723
  WF centre and spread   13  (  1.595000, -0.930480, -0.507115 )     1.65059781
  WF centre and spread   14  (  1.595000, -0.920710,  2.671753 )     1.75403326
  WF centre and spread   15  (  1.595000, -0.911628,  2.532027 )     1.64788080
  WF centre and spread   16  (  1.595000, -0.930152,  2.532034 )     1.64939041
  WF centre and spread   17  ( -0.000000, -0.000315,  6.763538 )     1.88413821
  WF centre and spread   18  (  0.000000, -0.024776,  6.925802 )     1.78413239
  WF centre and spread   19  (  0.000000,  0.024929,  6.925789 )     1.78537059
  WF centre and spread   20  ( -0.000000, -0.000326, 10.103788 )     1.88200768
  WF centre and spread   21  (  0.000000, -0.025294,  9.940022 )     1.78616552
  WF centre and spread   22  (  0.000000,  0.025465,  9.940026 )     1.78759901
  Sum of centres and spreads ( 17.544998,-10.129272,103.898646 )    39.70425533
 
      6    -0.618E-01     0.4565812804       39.7042550716       0.26  <-- CONV
        O_D=      0.0845535 O_OD=      2.6473737 O_TOT=     39.7042551 <-- SPRD
 Delta: O_D=  0.7952703E-03 O_OD= -0.6255570E-01 O_TOT= -0.6176043E-01 <-- DLTA
 ------------------------------------------------------------------------------
 Cycle:      7
  WF centre and spread    1  (  0.000000,  0.000155,  1.011502 )     1.48786745
  WF centre and spread    2  ( -0.000000, -0.044706,  1.012465 )     1.78734354
  WF centre and spread    3  (  0.000000,  0.045081,  1.012461 )     1.78454956
  WF centre and spread    4  (  0.000000, -0.110222,  1.012363 )     1.63076485
  WF centre and spread    5  (  0.000000,  0.109375,  1.012363 )     1.63102889
  WF centre and spread    6  (  1.595000, -0.921121,  8.434268 )     1.87267085
  WF centre and spread    7  (  1.595000, -0.870925,  8.432755 )     2.22697902
  WF centre and spread    8  (  1.595000, -0.971179,  8.432761 )     2.22198761
  WF centre and spread    9  (  1.595000, -0.784621,  8.432976 )     2.02366943
  WF centre and spread   10  (  1.595000, -1.055819,  8.432974 )     2.02425852
  WF centre and spread   11  (  1.595000, -0.920685, -0.648759 )     1.74968521
  WF centre and spread   12  (  1.595000, -0.911294, -0.507256 )     1.64731600
  WF centre and spread   13  (  1.595000, -0.930518, -0.507256 )     1.64895669
  WF centre and spread   14  (  1.595000, -0.920693,  2.671648 )     1.75349095
  WF centre and spread   15  (  1.595000, -0.911615,  2.532128 )     1.64639183
  WF centre and spread   16  (  1.595000, -0.930184,  2.532134 )     1.64789204
  WF centre and spread   17  ( -0.000000, -0.000341,  6.763634 )     1.88372573
  WF centre and spread   18  (  0.000000, -0.024792,  6.925656 )     1.78226276
  WF centre and spread   19  (  0.000000,  0.024980,  6.925644 )     1.78353394
  WF centre and spread   20  ( -0.000000, -0.000353, 10.103773 )     1.88137992
  WF centre and spread   21  (  0.000000, -0.025314,  9.940200 )     1.78409290
  WF centre and spread   22  (  0.000000,  0.025521,  9.940206 )     1.78553419
  Sum of centres and spreads ( 17.544998,-10.129267,103.898640 )    39.68538189
 
      7    -0.189E-01     0.2983806236       39.6853816340       0.29  <-- CONV
        O_D=      0.0842026 O_OD=      2.6288512 O_TOT=     39.6853816 <-- SPRD
 Delta: O_D= -0.3509012E-03 O_OD= -0.1852254E-01 O_TOT= -0.1887344E-01 <-- DLTA
 ------------------------------------------------------------------------------
 Cycle:      8
  WF centre and spread    1  (  0.000000,  0.000165,  1.011510 )     1.48838386
  WF centre and spread    2  ( -0.000000, -0.044791,  1.012462 )     1.78789896
  WF centre and spread    3  (  0.000000,  0.045220,  1.012460 )     1.78569397
  WF centre and spread    4  (  0.000000, -0.110261,  1.012367 )     1.63091516
  WF centre and spread    5  (  0.000000,  0.109367,  1.012367 )     1.63120335
  WF centre and spread    6  (  1.595000, -0.921137,  8.434252 )     1.87410524
  WF centre and spread    7  (  1.595000, -0.870788,  8.432762 )     2.22791467
  WF centre and spread    8  (  1.595000, -0.971420,  8.432765 )     2.22374887
  WF centre and spread    9  (  1.595000, -0.784539,  8.432971 )     2.02359460
  WF centre and spread   10  (  1.595000, -1.055818,  8.432971 )     2.02418663
  WF centre and spread   11  (  1.595000, -0.920649, -0.648652 )     1.74922687
  WF centre and spread   12  (  1.595000, -0.911262, -0.507495 )     1.64507075
  WF centre and spread   13  (  1.595000, -0.930591, -0.507495 )     1.64667360
  WF centre and spread   14  (  1.595000, -0.920657,  2.671510 )     1.75382875
  WF centre and spread   15  (  1.595000, -0.911586,  2.532368 )     1.64424853
  WF centre and spread   16  (  1.595000, -0.930253,  2.532372 )     1.64580314
  WF centre and spread   17  ( -0.000000, -0.000396,  6.763787 )     1.88417433
  WF centre and spread   18  (  0.000000, -0.024830,  6.925339 )     1.77921623
  WF centre and spread   19  (  0.000000,  0.025093,  6.925326 )     1.78062435
  WF centre and spread   20  ( -0.000000, -0.000409, 10.103640 )     1.88127840
  WF centre and spread   21  (  0.000000, -0.025353,  9.940518 )     1.78089800
  WF centre and spread   22  (  0.000000,  0.025635,  9.940527 )     1.78237370
  Sum of centres and spreads ( 17.544998,-10.129263,103.898633 )    39.67106193
 
      8    -0.143E-01     0.1995226917       39.6710616781       0.33  <-- CONV
        O_D=      0.0838744 O_OD=      2.6148594 O_TOT=     39.6710617 <-- SPRD
 Delta: O_D= -0.3282335E-03 O_OD= -0.1399172E-01 O_TOT= -0.1431996E-01 <-- DLTA
 ------------------------------------------------------------------------------
 Cycle:      9
  WF centre and spread    1  (  0.000000,  0.000178,  1.011529 )     1.48939473
  WF centre and spread    2  ( -0.000000, -0.044845,  1.012454 )     1.78905136
  WF centre and spread    3  (  0.000000,  0.045324,  1.012453 )     1.78733650
  WF centre and spread    4  (  0.000000, -0.110303,  1.012361 )     1.63146559
  WF centre and spread    5  (  0.000000,  0.109372,  1.012361 )     1.63174986
  WF centre and spread    6  (  1.595000, -0.921161,  8.434228 )     1.87624343
  WF centre and spread    7  (  1.595000, -0.870683,  8.432775 )     2.22959295
  WF centre and spread    8  (  1.595000, -0.971627,  8.432777 )     2.22617597
  WF centre and spread    9  (  1.595000, -0.784461,  8.432978 )     2.02407290
  WF centre and spread   10  (  1.595000, -1.055829,  8.432977 )     2.02465501
  WF centre and spread   11  (  1.595000, -0.920613, -0.648506 )     1.74900808
  WF centre and spread   12  (  1.595000, -0.911235, -0.507716 )     1.64288553
  WF centre and spread   13  (  1.595000, -0.930665, -0.507715 )     1.64438321
  WF centre and spread   14  (  1.595000, -0.920622,  2.671360 )     1.75414307
  WF centre and spread   15  (  1.595000, -0.911558,  2.532583 )     1.64212413
  WF centre and spread   16  (  1.595000, -0.930330,  2.532585 )     1.64359049
  WF centre and spread   17  ( -0.000000, -0.000453,  6.763969 )     1.88475785
  WF centre and spread   18  (  0.000000, -0.024871,  6.925054 )     1.77608787
  WF centre and spread   19  (  0.000000,  0.025216,  6.925039 )     1.77750801
  WF centre and spread   20  ( -0.000000, -0.000467, 10.103456 )     1.88137666
  WF centre and spread   21  (  0.000000, -0.025392,  9.940808 )     1.77769999
  WF centre and spread   22  (  0.000000,  0.025756,  9.940820 )     1.77915605
  Sum of centres and spreads ( 17.544998,-10.129267,103.898630 )    39.66245926
 
      9    -0.860E-02     0.1570734240       39.6624589996       0.36  <-- CONV
        O_D=      0.0837046 O_OD=      2.6064265 O_TOT=     39.6624590 <-- SPRD
 Delta: O_D= -0.1697732E-03 O_OD= -0.8432905E-02 O_TOT= -0.8602678E-02 <-- DLTA
 ------------------------------------------------------------------------------
 Cycle:     10
  WF centre and spread    1  (  0.000000,  0.000189,  1.011536 )     1.49055253
  WF centre and spread    2  ( -0.000000, -0.044868,  1.012446 )     1.79033904
  WF centre and spread    3  (  0.000000,  0.045380,  1.012446 )     1.78895409
  WF centre and spread    4  (  0.000000, -0.110327,  1.012356 )     1.63220699
  WF centre and spread    5  (  0.000000,  0.109381,  1.012357 )     1.63247329
  WF centre and spread    6  (  1.595000, -0.921180,  8.434219 )     1.87843662
  WF centre and spread    7  (  1.595000, -0.870621,  8.432785 )     2.23137760
  WF centre and spread    8  (  1.595000, -0.971757,  8.432786 )     2.22849976
  WF centre and spread    9  (  1.595000, -0.784417,  8.432985 )     2.02490943
  WF centre and spread   10  (  1.595000, -1.055840,  8.432984 )     2.02547551
  WF centre and spread   11  (  1.595000, -0.920585, -0.648369 )     1.74881711
  WF centre and spread   12  (  1.595000, -0.911222, -0.507863 )     1.64115703
  WF centre and spread   13  (  1.595000, -0.930721, -0.507863 )     1.64245758
  WF centre and spread   14  (  1.595000, -0.920595,  2.671214 )     1.75404663
  WF centre and spread   15  (  1.595000, -0.911542,  2.532726 )     1.64044729
  WF centre and spread   16  (  1.595000, -0.930389,  2.532728 )     1.64172639
  WF centre and spread   17  ( -0.000000, -0.000499,  6.764151 )     1.88494167
  WF centre and spread   18  (  0.000000, -0.024898,  6.924862 )     1.77350438
  WF centre and spread   19  (  0.000000,  0.025315,  6.924847 )     1.77483668
  WF centre and spread   20  ( -0.000000, -0.000514, 10.103279 )     1.88141568
  WF centre and spread   21  (  0.000000, -0.025416,  9.941002 )     1.77506066
  WF centre and spread   22  (  0.000000,  0.025851,  9.941014 )     1.77641244
  Sum of centres and spreads ( 17.544998,-10.129276,103.898629 )    39.65804841
 
     10    -0.441E-02     0.1157064411       39.6580481531       0.40  <-- CONV
        O_D=      0.0835837 O_OD=      2.6021366 O_TOT=     39.6580482 <-- SPRD
 Delta: O_D= -0.1209072E-03 O_OD= -0.4289939E-02 O_TOT= -0.4410847E-02 <-- DLTA
 ------------------------------------------------------------------------------
 Cycle:     11
  WF centre and spread    1  (  0.000000,  0.000195,  1.011536 )     1.49167334
  WF centre and spread    2  ( -0.000000, -0.044881,  1.012442 )     1.79145598
  WF centre and spread    3  (  0.000000,  0.045404,  1.012442 )     1.79032644
  WF centre and spread    4  (  0.000000, -0.110335,  1.012353 )     1.63291702
  WF centre and spread    5  (  0.000000,  0.109383,  1.012353 )     1.63317194
  WF centre and spread    6  (  1.595000, -0.921191,  8.434221 )     1.88040292
  WF centre and spread    7  (  1.595000, -0.870579,  8.432790 )     2.23289015
  WF centre and spread    8  (  1.595000, -0.971831,  8.432790 )     2.23043516
  WF centre and spread    9  (  1.595000, -0.784402,  8.432990 )     2.02582498
  WF centre and spread   10  (  1.595000, -1.055841,  8.432989 )     2.02638202
  WF centre and spread   11  (  1.595000, -0.920562, -0.648255 )     1.74862798
  WF centre and spread   12  (  1.595000, -0.911217, -0.507958 )     1.63992581
  WF centre and spread   13  (  1.595000, -0.930758, -0.507958 )     1.64099448
  WF centre and spread   14  (  1.595000, -0.920573,  2.671100 )     1.75370593
  WF centre and spread   15  (  1.595000, -0.911536,  2.532817 )     1.63919889
  WF centre and spread   16  (  1.595000, -0.930426,  2.532818 )     1.64025040
  WF centre and spread   17  ( -0.000000, -0.000537,  6.764297 )     1.88482686
  WF centre and spread   18  (  0.000000, -0.024912,  6.924736 )     1.77151501
  WF centre and spread   19  (  0.000000,  0.025383,  6.924724 )     1.77271009
  WF centre and spread   20  ( -0.000000, -0.000553, 10.103131 )     1.88138325
  WF centre and spread   21  (  0.000000, -0.025429,  9.941130 )     1.77305581
  WF centre and spread   22  (  0.000000,  0.025918,  9.941141 )     1.77426332
  Sum of centres and spreads ( 17.544998,-10.129281,103.898630 )    39.65593776
 
     11    -0.211E-02     0.0809748977       39.6559375016       0.44  <-- CONV
        O_D=      0.0834734 O_OD=      2.6001363 O_TOT=     39.6559375 <-- SPRD
 Delta: O_D= -0.1103143E-03 O_OD= -0.2000337E-02 O_TOT= -0.2110652E-02 <-- DLTA
 ------------------------------------------------------------------------------
 Cycle:     12
  WF centre and spread    1  (  0.000000,  0.000198,  1.011533 )     1.49272754
  WF centre and spread    2  ( -0.000000, -0.044895,  1.012441 )     1.79233726
  WF centre and spread    3  (  0.000000,  0.045417,  1.012442 )     1.79143590
  WF centre and spread    4  (  0.000000, -0.110333,  1.012352 )     1.63353243
  WF centre and spread    5  (  0.000000,  0.109380,  1.012353 )     1.63378479
  WF centre and spread    6  (  1.595000, -0.921198,  8.434225 )     1.88217444
  WF centre and spread    7  (  1.595000, -0.870541,  8.432791 )     2.23410933
  WF centre and spread    8  (  1.595000, -0.971880,  8.432790 )     2.23202693
  WF centre and spread    9  (  1.595000, -0.784403,  8.432992 )     2.02669277
  WF centre and spread   10  (  1.595000, -1.055832,  8.432991 )     2.02724552
  WF centre and spread   11  (  1.595000, -0.920543, -0.648161 )     1.74844069
  WF centre and spread   12  (  1.595000, -0.911216, -0.508024 )     1.63895691
  WF centre and spread   13  (  1.595000, -0.930782, -0.508025 )     1.63984481
  WF centre and spread   14  (  1.595000, -0.920555,  2.671013 )     1.75334929
  WF centre and spread   15  (  1.595000, -0.911535,  2.532881 )     1.63821473
  WF centre and spread   16  (  1.595000, -0.930451,  2.532883 )     1.63909702
  WF centre and spread   17  ( -0.000000, -0.000570,  6.764409 )     1.88464449
  WF centre and spread   18  (  0.000000, -0.024919,  6.924641 )     1.76991494
  WF centre and spread   19  (  0.000000,  0.025432,  6.924632 )     1.77101750
  WF centre and spread   20  ( -0.000000, -0.000587, 10.103013 )     1.88131015
  WF centre and spread   21  (  0.000000, -0.025435,  9.941227 )     1.77144492
  WF centre and spread   22  (  0.000000,  0.025966,  9.941235 )     1.77254850
  Sum of centres and spreads ( 17.544998,-10.129281,103.898633 )    39.65485085
 
     12    -0.109E-02     0.0597287640       39.6548505951       0.47  <-- CONV
        O_D=      0.0833932 O_OD=      2.5991295 O_TOT=     39.6548506 <-- SPRD
 Delta: O_D= -0.8016761E-04 O_OD= -0.1006739E-02 O_TOT= -0.1086906E-02 <-- DLTA
 ------------------------------------------------------------------------------
 Cycle:     13
  WF centre and spread    1  (  0.000000,  0.000198,  1.011530 )     1.49295755
  WF centre and spread    2  ( -0.000000, -0.044900,  1.012442 )     1.79247460
  WF centre and spread    3  (  0.000000,  0.045420,  1.012442 )     1.79162705
  WF centre and spread    4  (  0.000000, -0.110329,  1.012352 )     1.63364742
  WF centre and spread    5  (  0.000000,  0.109375,  1.012353 )     1.63390434
  WF centre and spread    6  (  1.595000, -0.921198,  8.434228 )     1.88255398
  WF centre and spread    7  (  1.595000, -0.870530,  8.432791 )     2.23431765
  WF centre and spread    8  (  1.595000, -0.971888,  8.432790 )     2.23232157
  WF centre and spread    9  (  1.595000, -0.784411,  8.432992 )     2.02689172
  WF centre and spread   10  (  1.595000, -1.055822,  8.432991 )     2.02744650
  WF centre and spread   11  (  1.595000, -0.920539, -0.648141 )     1.74839359
  WF centre and spread   12  (  1.595000, -0.911218, -0.508035 )     1.63870991
  WF centre and spread   13  (  1.595000, -0.930784, -0.508036 )     1.63960828
  WF centre and spread   14  (  1.595000, -0.920550,  2.670995 )     1.75328802
  WF centre and spread   15  (  1.595000, -0.911536,  2.532890 )     1.63798345
  WF centre and spread   16  (  1.595000, -0.930453,  2.532892 )     1.63887604
  WF centre and spread   17  ( -0.000000, -0.000579,  6.764429 )     1.88460047
  WF centre and spread   18  (  0.000000, -0.024918,  6.924623 )     1.76954487
  WF centre and spread   19  (  0.000000,  0.025440,  6.924614 )     1.77067468
  WF centre and spread   20  ( -0.000000, -0.000596, 10.102992 )     1.88128339
  WF centre and spread   21  (  0.000000, -0.025434,  9.941246 )     1.77106858
  WF centre and spread   22  (  0.000000,  0.025974,  9.941254 )     1.77220025
  Sum of centres and spreads ( 17.544998,-10.129279,103.898635 )    39.65437392
 
     13    -0.477E-03     0.0463751431       39.6543736629       0.51  <-- CONV
        O_D=      0.0833756 O_OD=      2.5986702 O_TOT=     39.6543737 <-- SPRD
 Delta: O_D= -0.1759312E-04 O_OD= -0.4593391E-03 O_TOT= -0.4769322E-03 <-- DLTA
 ------------------------------------------------------------------------------
 Cycle:     14
  WF centre and spread    1  (  0.000000,  0.000199,  1.011526 )     1.49362155
  WF centre and spread    2  ( -0.000000, -0.044913,  1.012444 )     1.79292579
  WF centre and spread    3  (  0.000000,  0.045425,  1.012444 )     1.79222802
  WF centre and spread    4  (  0.000000, -0.110315,  1.012353 )     1.63401700
  WF centre and spread    5  (  0.000000,  0.109362,  1.012353 )     1.63428494
  WF centre and spread    6  (  1.595000, -0.921200,  8.434233 )     1.88364890
  WF centre and spread    7  (  1.595000, -0.870500,  8.432788 )     2.23495925
  WF centre and spread    8  (  1.595000, -0.971915,  8.432788 )     2.23320525
  WF centre and spread    9  (  1.595000, -0.784433,  8.432992 )     2.02749334
  WF centre and spread   10  (  1.595000, -1.055795,  8.432991 )     2.02805451
  WF centre and spread   11  (  1.595000, -0.920525, -0.648083 )     1.74828239
  WF centre and spread   12  (  1.595000, -0.911222, -0.508062 )     1.63806521
  WF centre and spread   13  (  1.595000, -0.930791, -0.508063 )     1.63899677
  WF centre and spread   14  (  1.595000, -0.920536,  2.670943 )     1.75318827
  WF centre and spread   15  (  1.595000, -0.911540,  2.532917 )     1.63735969
  WF centre and spread   16  (  1.595000, -0.930460,  2.532920 )     1.63828695
  WF centre and spread   17  ( -0.000000, -0.000606,  6.764487 )     1.88453770
  WF centre and spread   18  (  0.000000, -0.024918,  6.924574 )     1.76851512
  WF centre and spread   19  (  0.000000,  0.025464,  6.924567 )     1.76972753
  WF centre and spread   20  ( -0.000000, -0.000623, 10.102928 )     1.88122982
  WF centre and spread   21  (  0.000000, -0.025433,  9.941295 )     1.77002133
  WF centre and spread   22  (  0.000000,  0.025998,  9.941302 )     1.77123481
  Sum of centres and spreads ( 17.544998,-10.129276,103.898636 )    39.65388415
 
     14    -0.490E-03     0.0333966662       39.6538838902       0.54  <-- CONV
        O_D=      0.0833368 O_OD=      2.5982193 O_TOT=     39.6538839 <-- SPRD
 Delta: O_D= -0.3884264E-04 O_OD= -0.4509300E-03 O_TOT= -0.4897726E-03 <-- DLTA
 ------------------------------------------------------------------------------
 Cycle:     15
  WF centre and spread    1  (  0.000000,  0.000201,  1.011523 )     1.49458594
  WF centre and spread    2  ( -0.000000, -0.044928,  1.012445 )     1.79364943
  WF centre and spread    3  (  0.000000,  0.045432,  1.012445 )     1.79316158
  WF centre and spread    4  (  0.000000, -0.110296,  1.012352 )     1.63458327
  WF centre and spread    5  (  0.000000,  0.109342,  1.012352 )     1.63486451
  WF centre and spread    6  (  1.595000, -0.921204,  8.434239 )     1.88524784
  WF centre and spread    7  (  1.595000, -0.870457,  8.432786 )     2.23595741
  WF centre and spread    8  (  1.595000, -0.971956,  8.432787 )     2.23454625
  WF centre and spread    9  (  1.595000, -0.784465,  8.432993 )     2.02837931
  WF centre and spread   10  (  1.595000, -1.055755,  8.432993 )     2.02895244
  WF centre and spread   11  (  1.595000, -0.920503, -0.647998 )     1.74811610
  WF centre and spread   12  (  1.595000, -0.911225, -0.508097 )     1.63712775
  WF centre and spread   13  (  1.595000, -0.930806, -0.508101 )     1.63810360
  WF centre and spread   14  (  1.595000, -0.920514,  2.670860 )     1.75308039
  WF centre and spread   15  (  1.595000, -0.911544,  2.532952 )     1.63643559
  WF centre and spread   16  (  1.595000, -0.930473,  2.532955 )     1.63740868
  WF centre and spread   17  ( -0.000000, -0.000646,  6.764576 )     1.88449549
  WF centre and spread   18  (  0.000000, -0.024921,  6.924512 )     1.76698114
  WF centre and spread   19  (  0.000000,  0.025505,  6.924505 )     1.76830992
  WF centre and spread   20  ( -0.000000, -0.000664, 10.102832 )     1.88115699
  WF centre and spread   21  (  0.000000, -0.025436,  9.941358 )     1.76845953
  WF centre and spread   22  (  0.000000,  0.026040,  9.941364 )     1.76978698
  Sum of centres and spreads ( 17.544998,-10.129274,103.898632 )    39.65339014
 
     15    -0.494E-03     0.0347090759       39.6533898814       0.58  <-- CONV
        O_D=      0.0832784 O_OD=      2.5977836 O_TOT=     39.6533899 <-- SPRD
 Delta: O_D= -0.5838308E-04 O_OD= -0.4356257E-03 O_TOT= -0.4940088E-03 <-- DLTA
 ------------------------------------------------------------------------------
 Cycle:     16
  WF centre and spread    1  (  0.000000,  0.000204,  1.011521 )     1.49522466
  WF centre and spread    2  ( -0.000000, -0.044936,  1.012445 )     1.79414998
  WF centre and spread    3  (  0.000000,  0.045438,  1.012445 )     1.79379657
  WF centre and spread    4  (  0.000000, -0.110285,  1.012351 )     1.63495612
  WF centre and spread    5  (  0.000000,  0.109328,  1.012351 )     1.63524362
  WF centre and spread    6  (  1.595000, -0.921209,  8.434242 )     1.88631294
  WF centre and spread    7  (  1.595000, -0.870430,  8.432786 )     2.23665859
  WF centre and spread    8  (  1.595000, -0.971987,  8.432786 )     2.23546616
  WF centre and spread    9  (  1.595000, -0.784483,  8.432995 )     2.02894947
  WF centre and spread   10  (  1.595000, -1.055730,  8.432994 )     2.02953290
  WF centre and spread   11  (  1.595000, -0.920488, -0.647945 )     1.74803895
  WF centre and spread   12  (  1.595000, -0.911225, -0.508119 )     1.63649256
  WF centre and spread   13  (  1.595000, -0.930820, -0.508123 )     1.63749165
  WF centre and spread   14  (  1.595000, -0.920499,  2.670807 )     1.75302278
  WF centre and spread   15  (  1.595000, -0.911543,  2.532973 )     1.63581030
  WF centre and spread   16  (  1.595000, -0.930487,  2.532977 )     1.63680813
  WF centre and spread   17  ( -0.000000, -0.000676,  6.764635 )     1.88450958
  WF centre and spread   18  (  0.000000, -0.024928,  6.924476 )     1.76594774
  WF centre and spread   19  (  0.000000,  0.025539,  6.924470 )     1.76734690
  WF centre and spread   20  ( -0.000000, -0.000693, 10.102771 )     1.88116085
  WF centre and spread   21  (  0.000000, -0.025442,  9.941394 )     1.76741188
  WF centre and spread   22  (  0.000000,  0.026075,  9.941400 )     1.76880774
  Sum of centres and spreads ( 17.544998,-10.129277,103.898632 )    39.65314009
 
     16    -0.250E-03     0.0285152807       39.6531398350       0.62  <-- CONV
        O_D=      0.0832379 O_OD=      2.5975740 O_TOT=     39.6531398 <-- SPRD
 Delta: O_D= -0.4043642E-04 O_OD= -0.2096100E-03 O_TOT= -0.2500464E-03 <-- DLTA
 ------------------------------------------------------------------------------
 Cycle:     17
  WF centre and spread    1  (  0.000000,  0.000207,  1.011521 )     1.49564569
  WF centre and spread    2  ( -0.000000, -0.044942,  1.012445 )     1.79448660
  WF centre and spread    3  (  0.000000,  0.045445,  1.012445 )     1.79422269
  WF centre and spread    4  (  0.000000, -0.110279,  1.012351 )     1.63518188
  WF centre and spread    5  (  0.000000,  0.109318,  1.012351 )     1.63547092
  WF centre and spread    6  (  1.595000, -0.921215,  8.434243 )     1.88701957
  WF centre and spread    7  (  1.595000, -0.870411,  8.432786 )     2.23714497
  WF centre and spread    8  (  1.595000, -0.972012,  8.432786 )     2.23609667
  WF centre and spread    9  (  1.595000, -0.784490,  8.432995 )     2.02929178
  WF centre and spread   10  (  1.595000, -1.055712,  8.432994 )     2.02988216
  WF centre and spread   11  (  1.595000, -0.920476, -0.647915 )     1.74803695
  WF centre and spread   12  (  1.595000, -0.911222, -0.508134 )     1.63606841
  WF centre and spread   13  (  1.595000, -0.930834, -0.508138 )     1.63707586
  WF centre and spread   14  (  1.595000, -0.920488,  2.670777 )     1.75299557
  WF centre and spread   15  (  1.595000, -0.911540,  2.532988 )     1.63538772
  WF centre and spread   16  (  1.595000, -0.930501,  2.532992 )     1.63639404
  WF centre and spread   17  ( -0.000000, -0.000698,  6.764669 )     1.88456271
  WF centre and spread   18  (  0.000000, -0.024937,  6.924453 )     1.76525966
  WF centre and spread   19  (  0.000000,  0.025570,  6.924446 )     1.76669653
  WF centre and spread   20  ( -0.000000, -0.000716, 10.102737 )     1.88122345
  WF centre and spread   21  (  0.000000, -0.025451,  9.941417 )     1.76672096
  WF centre and spread   22  (  0.000000,  0.026106,  9.941423 )     1.76815400
  Sum of centres and spreads ( 17.544998,-10.129279,103.898632 )    39.65301881
 
     17    -0.121E-03     0.0193678644       39.6530185586       0.65  <-- CONV
        O_D=      0.0832160 O_OD=      2.5974747 O_TOT=     39.6530186 <-- SPRD
 Delta: O_D= -0.2197611E-04 O_OD= -0.9930031E-04 O_TOT= -0.1212764E-03 <-- DLTA
 ------------------------------------------------------------------------------
 Cycle:     18
  WF centre and spread    1  (  0.000000,  0.000212,  1.011521 )     1.49596455
  WF centre and spread    2  ( -0.000000, -0.044948,  1.012445 )     1.79474914
  WF centre and spread    3  (  0.000000,  0.045452,  1.012445 )     1.79455729
  WF centre and spread    4  (  0.000000, -0.110274,  1.012350 )     1.63533765
  WF centre and spread    5  (  0.000000,  0.109307,  1.012351 )     1.63562494
  WF centre and spread    6  (  1.595000, -0.921223,  8.434243 )     1.88756052
  WF centre and spread    7  (  1.595000, -0.870395,  8.432786 )     2.23752764
  WF centre and spread    8  (  1.595000, -0.972035,  8.432786 )     2.23659598
  WF centre and spread    9  (  1.595000, -0.784494,  8.432996 )     2.02952350
  WF centre and spread   10  (  1.595000, -1.055696,  8.432995 )     2.03011603
  WF centre and spread   11  (  1.595000, -0.920466, -0.647895 )     1.74806378
  WF centre and spread   12  (  1.595000, -0.911218, -0.508148 )     1.63574251
  WF centre and spread   13  (  1.595000, -0.930850, -0.508151 )     1.63675390
  WF centre and spread   14  (  1.595000, -0.920478,  2.670759 )     1.75299595
  WF centre and spread   15  (  1.595000, -0.911536,  2.533002 )     1.63505605
  WF centre and spread   16  (  1.595000, -0.930517,  2.533006 )     1.63606678
  WF centre and spread   17  ( -0.000000, -0.000719,  6.764691 )     1.88464656
  WF centre and spread   18  (  0.000000, -0.024947,  6.924433 )     1.76472548
  WF centre and spread   19  (  0.000000,  0.025603,  6.924426 )     1.76618866
  WF centre and spread   20  ( -0.000000, -0.000738, 10.102714 )     1.88131202
  WF centre and spread   21  (  0.000000, -0.025461,  9.941437 )     1.76619013
  WF centre and spread   22  (  0.000000,  0.026139,  9.941443 )     1.76764889
  Sum of centres and spreads ( 17.544998,-10.129280,103.898633 )    39.65294795
 
     18    -0.709E-04     0.0145866721       39.6529476989       0.69  <-- CONV
        O_D=      0.0832053 O_OD=      2.5974146 O_TOT=     39.6529477 <-- SPRD
 Delta: O_D= -0.1070148E-04 O_OD= -0.6015827E-04 O_TOT= -0.7085975E-04 <-- DLTA
 ------------------------------------------------------------------------------
 Cycle:     19
  WF centre and spread    1  (  0.000000,  0.000214,  1.011521 )     1.49598648
  WF centre and spread    2  ( -0.000000, -0.044949,  1.012445 )     1.79477180
  WF centre and spread    3  (  0.000000,  0.045453,  1.012445 )     1.79458772
  WF centre and spread    4  (  0.000000, -0.110274,  1.012350 )     1.63534442
  WF centre and spread    5  (  0.000000,  0.109305,  1.012351 )     1.63562989
  WF centre and spread    6  (  1.595000, -0.921226,  8.434243 )     1.88760293
  WF centre and spread    7  (  1.595000, -0.870393,  8.432786 )     2.23755932
  WF centre and spread    8  (  1.595000, -0.972038,  8.432786 )     2.23664156
  WF centre and spread    9  (  1.595000, -0.784493,  8.432996 )     2.02953086
  WF centre and spread   10  (  1.595000, -1.055694,  8.432995 )     2.03012081
  WF centre and spread   11  (  1.595000, -0.920463, -0.647894 )     1.74807587
  WF centre and spread   12  (  1.595000, -0.911216, -0.508150 )     1.63570891
  WF centre and spread   13  (  1.595000, -0.930854, -0.508153 )     1.63672241
  WF centre and spread   14  (  1.595000, -0.920475,  2.670758 )     1.75301396
  WF centre and spread   15  (  1.595000, -0.911534,  2.533004 )     1.63502170
  WF centre and spread   16  (  1.595000, -0.930521,  2.533008 )     1.63603476
  WF centre and spread   17  ( -0.000000, -0.000724,  6.764691 )     1.88467810
  WF centre and spread   18  (  0.000000, -0.024950,  6.924430 )     1.76467085
  WF centre and spread   19  (  0.000000,  0.025611,  6.924423 )     1.76613820
  WF centre and spread   20  ( -0.000000, -0.000743, 10.102713 )     1.88133644
  WF centre and spread   21  (  0.000000, -0.025464,  9.941440 )     1.76613514
  WF centre and spread   22  (  0.000000,  0.026147,  9.941446 )     1.76759788
  Sum of centres and spreads ( 17.544998,-10.129279,103.898633 )    39.65291001
 
     19    -0.379E-04     0.0135378922       39.6529097566       0.73  <-- CONV
        O_D=      0.0832066 O_OD=      2.5973753 O_TOT=     39.6529098 <-- SPRD
 Delta: O_D=  0.1298239E-05 O_OD= -0.3924054E-04 O_TOT= -0.3794230E-04 <-- DLTA
 ------------------------------------------------------------------------------
 Cycle:     20
  WF centre and spread    1  (  0.000000,  0.000218,  1.011521 )     1.49604467
  WF centre and spread    2  ( -0.000000, -0.044951,  1.012445 )     1.79482965
  WF centre and spread    3  (  0.000000,  0.045456,  1.012445 )     1.79466403
  WF centre and spread    4  (  0.000000, -0.110273,  1.012350 )     1.63536462
  WF centre and spread    5  (  0.000000,  0.109301,  1.012351 )     1.63564545
  WF centre and spread    6  (  1.595000, -0.921233,  8.434243 )     1.88771422
  WF centre and spread    7  (  1.595000, -0.870387,  8.432786 )     2.23764114
  WF centre and spread    8  (  1.595000, -0.972045,  8.432786 )     2.23675629
  WF centre and spread    9  (  1.595000, -0.784491,  8.432996 )     2.02955548
  WF centre and spread   10  (  1.595000, -1.055688,  8.432995 )     2.03013911
  WF centre and spread   11  (  1.595000, -0.920458, -0.647892 )     1.74810869
  WF centre and spread   12  (  1.595000, -0.911213, -0.508155 )     1.63562739
  WF centre and spread   13  (  1.595000, -0.930863, -0.508158 )     1.63664675
  WF centre and spread   14  (  1.595000, -0.920470,  2.670756 )     1.75305855
  WF centre and spread   15  (  1.595000, -0.911531,  2.533009 )     1.63493960
  WF centre and spread   16  (  1.595000, -0.930530,  2.533013 )     1.63595876
  WF centre and spread   17  ( -0.000000, -0.000735,  6.764693 )     1.88475551
  WF centre and spread   18  (  0.000000, -0.024956,  6.924423 )     1.76453803
  WF centre and spread   19  (  0.000000,  0.025630,  6.924416 )     1.76601590
  WF centre and spread   20  ( -0.000000, -0.000754, 10.102712 )     1.88139990
  WF centre and spread   21  (  0.000000, -0.025471,  9.941447 )     1.76600203
  WF centre and spread   22  (  0.000000,  0.026167,  9.941454 )     1.76747509
  Sum of centres and spreads ( 17.544998,-10.129278,103.898633 )    39.65288088
 
     20    -0.291E-04     0.0088360029       39.6528806234       0.76  <-- CONV
        O_D=      0.0832100 O_OD=      2.5973427 O_TOT=     39.6528806 <-- SPRD
 Delta: O_D=  0.3461293E-05 O_OD= -0.3259445E-04 O_TOT= -0.2913316E-04 <-- DLTA
 ------------------------------------------------------------------------------
 Cycle:     21
  WF centre and spread    1  (  0.000000,  0.000224,  1.011522 )     1.49612764
  WF centre and spread    2  ( -0.000000, -0.044953,  1.012444 )     1.79490836
  WF centre and spread    3  (  0.000000,  0.045460,  1.012444 )     1.79476610
  WF centre and spread    4  (  0.000000, -0.110274,  1.012350 )     1.63539713
  WF centre and spread    5  (  0.000000,  0.109295,  1.012351 )     1.63567167
  WF centre and spread    6  (  1.595000, -0.921242,  8.434242 )     1.88787306
  WF centre and spread    7  (  1.595000, -0.870380,  8.432787 )     2.23775564
  WF centre and spread    8  (  1.595000, -0.972055,  8.432787 )     2.23691223
  WF centre and spread    9  (  1.595000, -0.784487,  8.432996 )     2.02959911
  WF centre and spread   10  (  1.595000, -1.055681,  8.432995 )     2.03017433
  WF centre and spread   11  (  1.595000, -0.920451, -0.647890 )     1.74815344
  WF centre and spread   12  (  1.595000, -0.911209, -0.508161 )     1.63551491
  WF centre and spread   13  (  1.595000, -0.930875, -0.508164 )     1.63654208
  WF centre and spread   14  (  1.595000, -0.920463,  2.670753 )     1.75311136
  WF centre and spread   15  (  1.595000, -0.911527,  2.533015 )     1.63482883
  WF centre and spread   16  (  1.595000, -0.930542,  2.533018 )     1.63585564
  WF centre and spread   17  ( -0.000000, -0.000751,  6.764696 )     1.88485264
  WF centre and spread   18  (  0.000000, -0.024965,  6.924415 )     1.76435635
  WF centre and spread   19  (  0.000000,  0.025656,  6.924407 )     1.76584787
  WF centre and spread   20  ( -0.000000, -0.000771, 10.102709 )     1.88148494
  WF centre and spread   21  (  0.000000, -0.025479,  9.941454 )     1.76581908
  WF centre and spread   22  (  0.000000,  0.026193,  9.941461 )     1.76730589
  Sum of centres and spreads ( 17.544998,-10.129277,103.898633 )    39.65285831
 
     21    -0.226E-04     0.0077518328       39.6528580541       0.79  <-- CONV
        O_D=      0.0832127 O_OD=      2.5973175 O_TOT=     39.6528581 <-- SPRD
 Delta: O_D=  0.2664739E-05 O_OD= -0.2523407E-04 O_TOT= -0.2256933E-04 <-- DLTA
 ------------------------------------------------------------------------------
 Cycle:     22
  WF centre and spread    1  (  0.000000,  0.000229,  1.011522 )     1.49620446
  WF centre and spread    2  ( -0.000000, -0.044955,  1.012444 )     1.79497877
  WF centre and spread    3  (  0.000000,  0.045462,  1.012444 )     1.79485616
  WF centre and spread    4  (  0.000000, -0.110275,  1.012350 )     1.63543235
  WF centre and spread    5  (  0.000000,  0.109290,  1.012351 )     1.63570172
  WF centre and spread    6  (  1.595000, -0.921251,  8.434242 )     1.88802079
  WF centre and spread    7  (  1.595000, -0.870375,  8.432787 )     2.23785918
  WF centre and spread    8  (  1.595000, -0.972062,  8.432787 )     2.23705029
  WF centre and spread    9  (  1.595000, -0.784484,  8.432996 )     2.02964930
  WF centre and spread   10  (  1.595000, -1.055675,  8.432995 )     2.03021734
  WF centre and spread   11  (  1.595000, -0.920444, -0.647886 )     1.74818782
  WF centre and spread   12  (  1.595000, -0.911205, -0.508164 )     1.63541611
  WF centre and spread   13  (  1.595000, -0.930886, -0.508167 )     1.63644893
  WF centre and spread   14  (  1.595000, -0.920456,  2.670749 )     1.75314789
  WF centre and spread   15  (  1.595000, -0.911523,  2.533019 )     1.63473150
  WF centre and spread   16  (  1.595000, -0.930553,  2.533022 )     1.63576393
  WF centre and spread   17  ( -0.000000, -0.000767,  6.764700 )     1.88492731
  WF centre and spread   18  (  0.000000, -0.024972,  6.924410 )     1.76419289
  WF centre and spread   19  (  0.000000,  0.025679,  6.924402 )     1.76569557
  WF centre and spread   20  ( -0.000000, -0.000787, 10.102706 )     1.88155536
  WF centre and spread   21  (  0.000000, -0.025486,  9.941458 )     1.76565449
  WF centre and spread   22  (  0.000000,  0.026217,  9.941467 )     1.76715239
  Sum of centres and spreads ( 17.544998,-10.129277,103.898633 )    39.65284454
 
     22    -0.138E-04     0.0064919776       39.6528442812       0.82  <-- CONV
        O_D=      0.0832119 O_OD=      2.5973045 O_TOT=     39.6528443 <-- SPRD
 Delta: O_D= -0.7617597E-06 O_OD= -0.1301110E-04 O_TOT= -0.1377286E-04 <-- DLTA
 ------------------------------------------------------------------------------
 Cycle:     23
  WF centre and spread    1  (  0.000000,  0.000234,  1.011522 )     1.49626411
  WF centre and spread    2  ( -0.000000, -0.044956,  1.012444 )     1.79502974
  WF centre and spread    3  (  0.000000,  0.045463,  1.012444 )     1.79492131
  WF centre and spread    4  (  0.000000, -0.110276,  1.012350 )     1.63546249
  WF centre and spread    5  (  0.000000,  0.109286,  1.012350 )     1.63572899
  WF centre and spread    6  (  1.595000, -0.921258,  8.434242 )     1.88813520
  WF centre and spread    7  (  1.595000, -0.870371,  8.432787 )     2.23793352
  WF centre and spread    8  (  1.595000, -0.972066,  8.432787 )     2.23714928
  WF centre and spread    9  (  1.595000, -0.784481,  8.432996 )     2.02969491
  WF centre and spread   10  (  1.595000, -1.055669,  8.432995 )     2.03025823
  WF centre and spread   11  (  1.595000, -0.920437, -0.647883 )     1.74820557
  WF centre and spread   12  (  1.595000, -0.911203, -0.508166 )     1.63534852
  WF centre and spread   13  (  1.595000, -0.930894, -0.508169 )     1.63638393
  WF centre and spread   14  (  1.595000, -0.920450,  2.670746 )     1.75316354
  WF centre and spread   15  (  1.595000, -0.911521,  2.533020 )     1.63466296
  WF centre and spread   16  (  1.595000, -0.930560,  2.533024 )     1.63569802
  WF centre and spread   17  ( -0.000000, -0.000781,  6.764704 )     1.88496884
  WF centre and spread   18  (  0.000000, -0.024976,  6.924408 )     1.76407375
  WF centre and spread   19  (  0.000000,  0.025697,  6.924398 )     1.76558352
  WF centre and spread   20  ( -0.000000, -0.000801, 10.102702 )     1.88159731
  WF centre and spread   21  (  0.000000, -0.025491,  9.941461 )     1.76553455
  WF centre and spread   22  (  0.000000,  0.026235,  9.941470 )     1.76703936
  Sum of centres and spreads ( 17.544998,-10.129277,103.898633 )    39.65283765
 
     23    -0.689E-05     0.0046322477       39.6528373961       0.85  <-- CONV
        O_D=      0.0832084 O_OD=      2.5973011 O_TOT=     39.6528374 <-- SPRD
 Delta: O_D= -0.3483739E-05 O_OD= -0.3401330E-05 O_TOT= -0.6885070E-05 <-- DLTA
 ------------------------------------------------------------------------------
 Cycle:     24
  WF centre and spread    1  (  0.000000,  0.000240,  1.011523 )     1.49633977
  WF centre and spread    2  ( -0.000000, -0.044957,  1.012444 )     1.79508513
  WF centre and spread    3  (  0.000000,  0.045463,  1.012444 )     1.79499385
  WF centre and spread    4  (  0.000000, -0.110278,  1.012350 )     1.63549967
  WF centre and spread    5  (  0.000000,  0.109282,  1.012350 )     1.63576408
  WF centre and spread    6  (  1.595000, -0.921268,  8.434242 )     1.88827873
  WF centre and spread    7  (  1.595000, -0.870367,  8.432787 )     2.23801631
  WF centre and spread    8  (  1.595000, -0.972069,  8.432787 )     2.23726169
  WF centre and spread    9  (  1.595000, -0.784477,  8.432996 )     2.02975558
  WF centre and spread   10  (  1.595000, -1.055662,  8.432995 )     2.03031422
  WF centre and spread   11  (  1.595000, -0.920429, -0.647879 )     1.74822013
  WF centre and spread   12  (  1.595000, -0.911201, -0.508167 )     1.63527285
  WF centre and spread   13  (  1.595000, -0.930904, -0.508171 )     1.63631046
  WF centre and spread   14  (  1.595000, -0.920442,  2.670741 )     1.75317174
  WF centre and spread   15  (  1.595000, -0.911519,  2.533022 )     1.63458606
  WF centre and spread   16  (  1.595000, -0.930570,  2.533026 )     1.63562343
  WF centre and spread   17  ( -0.000000, -0.000800,  6.764708 )     1.88500508
  WF centre and spread   18  (  0.000000, -0.024981,  6.924405 )     1.76393636
  WF centre and spread   19  (  0.000000,  0.025720,  6.924395 )     1.76545413
  WF centre and spread   20  ( -0.000000, -0.000821, 10.102698 )     1.88163782
  WF centre and spread   21  (  0.000000, -0.025496,  9.941464 )     1.76539610
  WF centre and spread   22  (  0.000000,  0.026259,  9.941473 )     1.76690864
  Sum of centres and spreads ( 17.544998,-10.129277,103.898633 )    39.65283183
 
     24    -0.583E-05     0.0037097891       39.6528315699       0.87  <-- CONV
        O_D=      0.0832017 O_OD=      2.5973020 O_TOT=     39.6528316 <-- SPRD
 Delta: O_D= -0.6708561E-05 O_OD=  0.8823485E-06 O_TOT= -0.5826213E-05 <-- DLTA
 ------------------------------------------------------------------------------
 Cycle:     25
  WF centre and spread    1  (  0.000000,  0.000242,  1.011522 )     1.49634769
  WF centre and spread    2  ( -0.000000, -0.044958,  1.012444 )     1.79508669
  WF centre and spread    3  (  0.000000,  0.045463,  1.012444 )     1.79499713
  WF centre and spread    4  (  0.000000, -0.110278,  1.012350 )     1.63550266
  WF centre and spread    5  (  0.000000,  0.109281,  1.012350 )     1.63576745
  WF centre and spread    6  (  1.595000, -0.921270,  8.434242 )     1.88829377
  WF centre and spread    7  (  1.595000, -0.870366,  8.432787 )     2.23802030
  WF centre and spread    8  (  1.595000, -0.972069,  8.432787 )     2.23726872
  WF centre and spread    9  (  1.595000, -0.784476,  8.432996 )     2.02976259
  WF centre and spread   10  (  1.595000, -1.055661,  8.432995 )     2.03032136
  WF centre and spread   11  (  1.595000, -0.920428, -0.647878 )     1.74822020
  WF centre and spread   12  (  1.595000, -0.911201, -0.508167 )     1.63526598
  WF centre and spread   13  (  1.595000, -0.930905, -0.508171 )     1.63630409
  WF centre and spread   14  (  1.595000, -0.920441,  2.670741 )     1.75317152
  WF centre and spread   15  (  1.595000, -0.911519,  2.533022 )     1.63458052
  WF centre and spread   16  (  1.595000, -0.930571,  2.533026 )     1.63561840
  WF centre and spread   17  ( -0.000000, -0.000804,  6.764709 )     1.88500609
  WF centre and spread   18  (  0.000000, -0.024981,  6.924405 )     1.76392523
  WF centre and spread   19  (  0.000000,  0.025723,  6.924395 )     1.76544414
  WF centre and spread   20  ( -0.000000, -0.000825, 10.102697 )     1.88163965
  WF centre and spread   21  (  0.000000, -0.025496,  9.941464 )     1.76538475
  WF centre and spread   22  (  0.000000,  0.026262,  9.941474 )     1.76689845
  Sum of centres and spreads ( 17.544998,-10.129277,103.898633 )    39.65282741
 
     25    -0.441E-05     0.0045731022       39.6528271565       0.90  <-- CONV
        O_D=      0.0832005 O_OD=      2.5972988 O_TOT=     39.6528272 <-- SPRD
 Delta: O_D= -0.1215162E-05 O_OD= -0.3198270E-05 O_TOT= -0.4413432E-05 <-- DLTA
 ------------------------------------------------------------------------------
 Cycle:     26
  WF centre and spread    1  (  0.000000,  0.000246,  1.011522 )     1.49636877
  WF centre and spread    2  ( -0.000000, -0.044958,  1.012444 )     1.79509381
  WF centre and spread    3  (  0.000000,  0.045462,  1.012445 )     1.79500889
  WF centre and spread    4  (  0.000000, -0.110281,  1.012350 )     1.63551279
  WF centre and spread    5  (  0.000000,  0.109279,  1.012350 )     1.63577866
  WF centre and spread    6  (  1.595000, -0.921276,  8.434242 )     1.88833517
  WF centre and spread    7  (  1.595000, -0.870365,  8.432787 )     2.23803299
  WF centre and spread    8  (  1.595000, -0.972069,  8.432787 )     2.23728975
  WF centre and spread    9  (  1.595000, -0.784473,  8.432996 )     2.02978356
  WF centre and spread   10  (  1.595000, -1.055657,  8.432995 )     2.03034267
  WF centre and spread   11  (  1.595000, -0.920423, -0.647876 )     1.74821979
  WF centre and spread   12  (  1.595000, -0.911202, -0.508167 )     1.63524838
  WF centre and spread   13  (  1.595000, -0.930909, -0.508171 )     1.63628771
  WF centre and spread   14  (  1.595000, -0.920436,  2.670739 )     1.75317302
  WF centre and spread   15  (  1.595000, -0.911520,  2.533022 )     1.63456469
  WF centre and spread   16  (  1.595000, -0.930575,  2.533026 )     1.63560379
  WF centre and spread   17  ( -0.000000, -0.000815,  6.764711 )     1.88501068
  WF centre and spread   18  (  0.000000, -0.024981,  6.924404 )     1.76389220
  WF centre and spread   19  (  0.000000,  0.025734,  6.924394 )     1.76541405
  WF centre and spread   20  ( -0.000000, -0.000836, 10.102695 )     1.88164413
  WF centre and spread   21  (  0.000000, -0.025495,  9.941465 )     1.76535046
  WF centre and spread   22  (  0.000000,  0.026273,  9.941474 )     1.76686715
  Sum of centres and spreads ( 17.544998,-10.129276,103.898633 )    39.65282310
 
     26    -0.432E-05     0.0030665874       39.6528228403       0.93  <-- CONV
        O_D=      0.0831970 O_OD=      2.5972979 O_TOT=     39.6528228 <-- SPRD
 Delta: O_D= -0.3490214E-05 O_OD= -0.8259604E-06 O_TOT= -0.4316174E-05 <-- DLTA
 ------------------------------------------------------------------------------
 Cycle:     27
  WF centre and spread    1  (  0.000000,  0.000255,  1.011522 )     1.49640873
  WF centre and spread    2  ( -0.000000, -0.044959,  1.012445 )     1.79511287
  WF centre and spread    3  (  0.000000,  0.045461,  1.012445 )     1.79503667
  WF centre and spread    4  (  0.000000, -0.110287,  1.012350 )     1.63553626
  WF centre and spread    5  (  0.000000,  0.109275,  1.012350 )     1.63580417
  WF centre and spread    6  (  1.595000, -0.921291,  8.434242 )     1.88841647
  WF centre and spread    7  (  1.595000, -0.870362,  8.432786 )     2.23806288
  WF centre and spread    8  (  1.595000, -0.972069,  8.432786 )     2.23733527
  WF centre and spread    9  (  1.595000, -0.784463,  8.432996 )     2.02982806
  WF centre and spread   10  (  1.595000, -1.055651,  8.432996 )     2.03038787
  WF centre and spread   11  (  1.595000, -0.920412, -0.647872 )     1.74821869
  WF centre and spread   12  (  1.595000, -0.911202, -0.508167 )     1.63521330
  WF centre and spread   13  (  1.595000, -0.930919, -0.508170 )     1.63625409
  WF centre and spread   14  (  1.595000, -0.920425,  2.670735 )     1.75317852
  WF centre and spread   15  (  1.595000, -0.911520,  2.533021 )     1.63453096
  WF centre and spread   16  (  1.595000, -0.930584,  2.533025 )     1.63557150
  WF centre and spread   17  ( -0.000000, -0.000841,  6.764715 )     1.88502309
  WF centre and spread   18  (  0.000000, -0.024981,  6.924403 )     1.76382097
  WF centre and spread   19  (  0.000000,  0.025759,  6.924394 )     1.76534759
  WF centre and spread   20  ( -0.000000, -0.000863, 10.102690 )     1.88165396
  WF centre and spread   21  (  0.000000, -0.025496,  9.941466 )     1.76527661
  WF centre and spread   22  (  0.000000,  0.026300,  9.941475 )     1.76679802
  Sum of centres and spreads ( 17.544998,-10.129275,103.898633 )    39.65281654
 
     27    -0.655E-05     0.0034911469       39.6528162856       0.95  <-- CONV
        O_D=      0.0831898 O_OD=      2.5972986 O_TOT=     39.6528163 <-- SPRD
 Delta: O_D= -0.7224577E-05 O_OD=  0.6698657E-06 O_TOT= -0.6554711E-05 <-- DLTA
 ------------------------------------------------------------------------------
 Cycle:     28
  WF centre and spread    1  (  0.000000,  0.000269,  1.011522 )     1.49645912
  WF centre and spread    2  ( -0.000000, -0.044960,  1.012445 )     1.79514102
  WF centre and spread    3  (  0.000000,  0.045460,  1.012445 )     1.79507511
  WF centre and spread    4  (  0.000000, -0.110297,  1.012350 )     1.63556754
  WF centre and spread    5  (  0.000000,  0.109271,  1.012350 )     1.63583782
  WF centre and spread    6  (  1.595000, -0.921313,  8.434242 )     1.88852033
  WF centre and spread    7  (  1.595000, -0.870359,  8.432786 )     2.23810839
  WF centre and spread    8  (  1.595000, -0.972070,  8.432786 )     2.23739900
  WF centre and spread    9  (  1.595000, -0.784446,  8.432997 )     2.02988582
  WF centre and spread   10  (  1.595000, -1.055643,  8.432996 )     2.03044663
  WF centre and spread   11  (  1.595000, -0.920395, -0.647867 )     1.74822226
  WF centre and spread   12  (  1.595000, -0.911202, -0.508166 )     1.63516523
  WF centre and spread   13  (  1.595000, -0.930934, -0.508170 )     1.63620633
  WF centre and spread   14  (  1.595000, -0.920409,  2.670730 )     1.75318518
  WF centre and spread   15  (  1.595000, -0.911521,  2.533020 )     1.63448441
  WF centre and spread   16  (  1.595000, -0.930598,  2.533024 )     1.63552535
  WF centre and spread   17  ( -0.000000, -0.000880,  6.764721 )     1.88504244
  WF centre and spread   18  (  0.000000, -0.024982,  6.924403 )     1.76372489
  WF centre and spread   19  (  0.000000,  0.025798,  6.924393 )     1.76525558
  WF centre and spread   20  ( -0.000000, -0.000904, 10.102684 )     1.88167462
  WF centre and spread   21  (  0.000000, -0.025497,  9.941466 )     1.76517818
  WF centre and spread   22  (  0.000000,  0.026339,  9.941476 )     1.76670343
[...]
  WF centre and spread    6  (  1.595000, -0.922272,  8.434241 )     1.88856939
  WF centre and spread    7  (  1.595000, -0.870353,  8.432783 )     2.23812257
  WF centre and spread    8  (  1.595000, -0.972073,  8.432783 )     2.23737130
  WF centre and spread    9  (  1.595000, -0.783371,  8.433000 )     2.02967942
  WF centre and spread   10  (  1.595000, -1.055653,  8.432999 )     2.03039374
  WF centre and spread   11  (  1.595000, -0.919731, -0.647870 )     1.74824201
  WF centre and spread   12  (  1.595000, -0.911194, -0.508169 )     1.63516173
  WF centre and spread   13  (  1.595000, -0.931599, -0.508175 )     1.63618876
  WF centre and spread   14  (  1.595000, -0.919769,  2.670734 )     1.75319637
  WF centre and spread   15  (  1.595000, -0.911513,  2.533024 )     1.63447985
  WF centre and spread   16  (  1.595000, -0.931239,  2.533029 )     1.63550768
  WF centre and spread   17  ( -0.000000, -0.002442,  6.764732 )     1.88506027
  WF centre and spread   18  (  0.000000, -0.024996,  6.924399 )     1.76372538
  WF centre and spread   19  (  0.000000,  0.027356,  6.924371 )     1.76518011
  WF centre and spread   20  ( -0.000000, -0.002515, 10.102672 )     1.88169408
  WF centre and spread   21  (  0.000000, -0.025511,  9.941470 )     1.76518065
  WF centre and spread   22  (  0.000000,  0.027948,  9.941499 )     1.76662598
  Sum of centres and spreads ( 17.544998,-10.129232,103.898633 )    39.65232886
 
     94    -0.537E-05     0.0036898391       39.6523285994       2.72  <-- CONV
        O_D=      0.0832194 O_OD=      2.5967814 O_TOT=     39.6523286 <-- SPRD
 Delta: O_D=  0.4299423E-05 O_OD= -0.9667240E-05 O_TOT= -0.5367817E-05 <-- DLTA
 ------------------------------------------------------------------------------
 Cycle:     95
  WF centre and spread    1  (  0.000000,  0.000884,  1.011523 )     1.49647429
  WF centre and spread    2  ( -0.000000, -0.044962,  1.012449 )     1.79515667
  WF centre and spread    3  (  0.000000,  0.045462,  1.012449 )     1.79507358
  WF centre and spread    4  ( -0.000000, -0.110966,  1.012345 )     1.63542973
  WF centre and spread    5  (  0.000000,  0.109275,  1.012346 )     1.63580987
  WF centre and spread    6  (  1.595000, -0.922284,  8.434241 )     1.88856017
  WF centre and spread    7  (  1.595000, -0.870353,  8.432784 )     2.23812917
  WF centre and spread    8  (  1.595000, -0.972073,  8.432784 )     2.23737559
  WF centre and spread    9  (  1.595000, -0.783356,  8.433000 )     2.02966848
  WF centre and spread   10  (  1.595000, -1.055655,  8.432999 )     2.03038396
  WF centre and spread   11  (  1.595000, -0.919723, -0.647871 )     1.74824791
  WF centre and spread   12  (  1.595000, -0.911193, -0.508170 )     1.63516295
  WF centre and spread   13  (  1.595000, -0.931608, -0.508175 )     1.63618617
  WF centre and spread   14  (  1.595000, -0.919762,  2.670734 )     1.75320213
  WF centre and spread   15  (  1.595000, -0.911512,  2.533024 )     1.63447947
  WF centre and spread   16  (  1.595000, -0.931248,  2.533030 )     1.63550359
  WF centre and spread   17  ( -0.000000, -0.002460,  6.764732 )     1.88506946
  WF centre and spread   18  (  0.000000, -0.024997,  6.924399 )     1.76372686
  WF centre and spread   19  (  0.000000,  0.027377,  6.924370 )     1.76517585
  WF centre and spread   20  ( -0.000000, -0.002534, 10.102672 )     1.88170321
  WF centre and spread   21  (  0.000000, -0.025512,  9.941470 )     1.76518302
  WF centre and spread   22  (  0.000000,  0.027969,  9.941500 )     1.76662240
  Sum of centres and spreads ( 17.544998,-10.129232,103.898633 )    39.65232451
 
     95    -0.434E-05     0.0033153062       39.6523242559       2.74  <-- CONV
        O_D=      0.0832221 O_OD=      2.5967743 O_TOT=     39.6523243 <-- SPRD
 Delta: O_D=  0.2755689E-05 O_OD= -0.7099231E-05 O_TOT= -0.4343542E-05 <-- DLTA
 ------------------------------------------------------------------------------
 Cycle:     96
  WF centre and spread    1  (  0.000000,  0.000895,  1.011523 )     1.49647416
  WF centre and spread    2  ( -0.000000, -0.044962,  1.012449 )     1.79515985
  WF centre and spread    3  (  0.000000,  0.045463,  1.012449 )     1.79507561
  WF centre and spread    4  ( -0.000000, -0.110978,  1.012345 )     1.63542596
  WF centre and spread    5  (  0.000000,  0.109275,  1.012346 )     1.63580805
  WF centre and spread    6  (  1.595000, -0.922301,  8.434241 )     1.88855944
  WF centre and spread    7  (  1.595000, -0.870353,  8.432784 )     2.23813326
  WF centre and spread    8  (  1.595000, -0.972074,  8.432784 )     2.23737745
  WF centre and spread    9  (  1.595000, -0.783337,  8.433000 )     2.02966120
  WF centre and spread   10  (  1.595000, -1.055656,  8.432999 )     2.03037943
  WF centre and spread   11  (  1.595000, -0.919711, -0.647872 )     1.74824956
  WF centre and spread   12  (  1.595000, -0.911193, -0.508170 )     1.63516442
  WF centre and spread   13  (  1.595000, -0.931620, -0.508175 )     1.63618570
  WF centre and spread   14  (  1.595000, -0.919750,  2.670735 )     1.75320374
  WF centre and spread   15  (  1.595000, -0.911511,  2.533024 )     1.63447910
  WF centre and spread   16  (  1.595000, -0.931260,  2.533030 )     1.63550128
  WF centre and spread   17  ( -0.000000, -0.002487,  6.764732 )     1.88507229
  WF centre and spread   18  (  0.000000, -0.024998,  6.924399 )     1.76372725
  WF centre and spread   19  (  0.000000,  0.027405,  6.924369 )     1.76517272
  WF centre and spread   20  ( -0.000000, -0.002562, 10.102672 )     1.88170575
  WF centre and spread   21  (  0.000000, -0.025513,  9.941470 )     1.76518392
  WF centre and spread   22  (  0.000000,  0.027997,  9.941501 )     1.76661969
  Sum of centres and spreads ( 17.544998,-10.129231,103.898633 )    39.65231983
 
     96    -0.468E-05     0.0031476389       39.6523195783       2.77  <-- CONV
        O_D=      0.0832231 O_OD=      2.5967686 O_TOT=     39.6523196 <-- SPRD
 Delta: O_D=  0.1020759E-05 O_OD= -0.5698343E-05 O_TOT= -0.4677584E-05 <-- DLTA
 ------------------------------------------------------------------------------
 Cycle:     97
  WF centre and spread    1  (  0.000000,  0.000896,  1.011523 )     1.49647714
  WF centre and spread    2  ( -0.000000, -0.044962,  1.012449 )     1.79515749
  WF centre and spread    3  (  0.000000,  0.045462,  1.012449 )     1.79507383
  WF centre and spread    4  ( -0.000000, -0.110979,  1.012345 )     1.63542662
  WF centre and spread    5  (  0.000000,  0.109275,  1.012346 )     1.63580938
  WF centre and spread    6  (  1.595000, -0.922303,  8.434241 )     1.88856451
  WF centre and spread    7  (  1.595000, -0.870353,  8.432784 )     2.23813079
  WF centre and spread    8  (  1.595000, -0.972073,  8.432784 )     2.23737589
  WF centre and spread    9  (  1.595000, -0.783335,  8.433000 )     2.02966374
  WF centre and spread   10  (  1.595000, -1.055655,  8.432999 )     2.03038284
  WF centre and spread   11  (  1.595000, -0.919710, -0.647871 )     1.74824748
  WF centre and spread   12  (  1.595000, -0.911193, -0.508170 )     1.63516268
  WF centre and spread   13  (  1.595000, -0.931621, -0.508175 )     1.63618577
  WF centre and spread   14  (  1.595000, -0.919749,  2.670734 )     1.75320116
  WF centre and spread   15  (  1.595000, -0.911511,  2.533024 )     1.63447869
  WF centre and spread   16  (  1.595000, -0.931260,  2.533030 )     1.63550267
  WF centre and spread   17  ( -0.000000, -0.002490,  6.764733 )     1.88506878
  WF centre and spread   18  (  0.000000, -0.024998,  6.924399 )     1.76372604
  WF centre and spread   19  (  0.000000,  0.027407,  6.924369 )     1.76517389
  WF centre and spread   20  ( -0.000000, -0.002565, 10.102671 )     1.88170264
  WF centre and spread   21  (  0.000000, -0.025513,  9.941470 )     1.76518251
  WF centre and spread   22  (  0.000000,  0.028000,  9.941501 )     1.76662070
  Sum of centres and spreads ( 17.544998,-10.129231,103.898633 )    39.65231524
 
     97    -0.460E-05     0.0046985932       39.6523149800       2.79  <-- CONV
        O_D=      0.0832221 O_OD=      2.5967650 O_TOT=     39.6523150 <-- SPRD
 Delta: O_D= -0.1007077E-05 O_OD= -0.3591191E-05 O_TOT= -0.4598268E-05 <-- DLTA
 ------------------------------------------------------------------------------
 Cycle:     98
  WF centre and spread    1  (  0.000000,  0.000899,  1.011523 )     1.49648374
  WF centre and spread    2  ( -0.000000, -0.044962,  1.012449 )     1.79515244
  WF centre and spread    3  (  0.000000,  0.045462,  1.012449 )     1.79506983
  WF centre and spread    4  ( -0.000000, -0.110982,  1.012345 )     1.63542889
  WF centre and spread    5  (  0.000000,  0.109274,  1.012346 )     1.63581348
  WF centre and spread    6  (  1.595000, -0.922308,  8.434241 )     1.88857634
  WF centre and spread    7  (  1.595000, -0.870353,  8.432783 )     2.23812438
  WF centre and spread    8  (  1.595000, -0.972073,  8.432783 )     2.23737107
  WF centre and spread    9  (  1.595000, -0.783330,  8.433000 )     2.02967042
  WF centre and spread   10  (  1.595000, -1.055654,  8.432999 )     2.03039177
  WF centre and spread   11  (  1.595000, -0.919706, -0.647870 )     1.74824138
  WF centre and spread   12  (  1.595000, -0.911194, -0.508169 )     1.63516140
  WF centre and spread   13  (  1.595000, -0.931624, -0.508175 )     1.63618821
  WF centre and spread   14  (  1.595000, -0.919745,  2.670734 )     1.75319516
  WF centre and spread   15  (  1.595000, -0.911513,  2.533024 )     1.63447894
  WF centre and spread   16  (  1.595000, -0.931263,  2.533029 )     1.63550657
  WF centre and spread   17  ( -0.000000, -0.002500,  6.764734 )     1.88505935
  WF centre and spread   18  (  0.000000, -0.024996,  6.924399 )     1.76372425
  WF centre and spread   19  (  0.000000,  0.027414,  6.924370 )     1.76517698
  WF centre and spread   20  ( -0.000000, -0.002575, 10.102670 )     1.88169328
  WF centre and spread   21  (  0.000000, -0.025511,  9.941470 )     1.76517990
  WF centre and spread   22  (  0.000000,  0.028007,  9.941501 )     1.76662310
  Sum of centres and spreads ( 17.544998,-10.129230,103.898633 )    39.65231089
 
     98    -0.434E-05     0.0031357612       39.6523106371       2.82  <-- CONV
        O_D=      0.0832195 O_OD=      2.5967632 O_TOT=     39.6523106 <-- SPRD
 Delta: O_D= -0.2596210E-05 O_OD= -0.1746670E-05 O_TOT= -0.4342880E-05 <-- DLTA
 ------------------------------------------------------------------------------
 Cycle:     99
  WF centre and spread    1  (  0.000000,  0.000907,  1.011522 )     1.49649175
  WF centre and spread    2  ( -0.000000, -0.044962,  1.012449 )     1.79514602
  WF centre and spread    3  (  0.000000,  0.045461,  1.012449 )     1.79506390
  WF centre and spread    4  ( -0.000000, -0.110989,  1.012345 )     1.63543282
  WF centre and spread    5  (  0.000000,  0.109273,  1.012346 )     1.63582042
  WF centre and spread    6  (  1.595000, -0.922320,  8.434241 )     1.88859191
  WF centre and spread    7  (  1.595000, -0.870353,  8.432783 )     2.23811522
  WF centre and spread    8  (  1.595000, -0.972071,  8.432783 )     2.23736214
  WF centre and spread    9  (  1.595000, -0.783319,  8.433000 )     2.02968027
  WF centre and spread   10  (  1.595000, -1.055652,  8.432999 )     2.03040504
  WF centre and spread   11  (  1.595000, -0.919697, -0.647869 )     1.74823066
  WF centre and spread   12  (  1.595000, -0.911196, -0.508168 )     1.63516395
  WF centre and spread   13  (  1.595000, -0.931629, -0.508174 )     1.63619323
  WF centre and spread   14  (  1.595000, -0.919737,  2.670732 )     1.75318605
  WF centre and spread   15  (  1.595000, -0.911514,  2.533023 )     1.63448148
  WF centre and spread   16  (  1.595000, -0.931268,  2.533028 )     1.63551158
  WF centre and spread   17  ( -0.000000, -0.002519,  6.764735 )     1.88504320
  WF centre and spread   18  (  0.000000, -0.024993,  6.924400 )     1.76372414
  WF centre and spread   19  (  0.000000,  0.027429,  6.924370 )     1.76518039
  WF centre and spread   20  ( -0.000000, -0.002595, 10.102668 )     1.88167643
  WF centre and spread   21  (  0.000000, -0.025509,  9.941469 )     1.76517911
  WF centre and spread   22  (  0.000000,  0.028023,  9.941500 )     1.76662582
  Sum of centres and spreads ( 17.544998,-10.129230,103.898633 )    39.65230553
 
     99    -0.537E-05     0.0033254757       39.6523052697       2.85  <-- CONV
        O_D=      0.0832156 O_OD=      2.5967617 O_TOT=     39.6523053 <-- SPRD
 Delta: O_D= -0.3883413E-05 O_OD= -0.1484079E-05 O_TOT= -0.5367492E-05 <-- DLTA
 ------------------------------------------------------------------------------
 Cycle:    100
  WF centre and spread    1  (  0.000000,  0.000917,  1.011522 )     1.49649990
  WF centre and spread    2  ( -0.000000, -0.044962,  1.012449 )     1.79514002
  WF centre and spread    3  (  0.000000,  0.045460,  1.012449 )     1.79505710
  WF centre and spread    4  ( -0.000000, -0.111001,  1.012345 )     1.63543614
  WF centre and spread    5  (  0.000000,  0.109273,  1.012346 )     1.63582733
  WF centre and spread    6  (  1.595000, -0.922337,  8.434242 )     1.88860837
  WF centre and spread    7  (  1.595000, -0.870353,  8.432783 )     2.23810813
  WF centre and spread    8  (  1.595000, -0.972070,  8.432783 )     2.23735255
  WF centre and spread    9  (  1.595000, -0.783300,  8.433000 )     2.02968919
  WF centre and spread   10  (  1.595000, -1.055651,  8.432999 )     2.03041803
  WF centre and spread   11  (  1.595000, -0.919685, -0.647867 )     1.74822051
  WF centre and spread   12  (  1.595000, -0.911198, -0.508167 )     1.63516890
  WF centre and spread   13  (  1.595000, -0.931639, -0.508173 )     1.63619665
  WF centre and spread   14  (  1.595000, -0.919725,  2.670730 )     1.75317536
  WF centre and spread   15  (  1.595000, -0.911516,  2.533021 )     1.63448583
  WF centre and spread   16  (  1.595000, -0.931278,  2.533027 )     1.63551454
  WF centre and spread   17  ( -0.000000, -0.002547,  6.764738 )     1.88502405
  WF centre and spread   18  (  0.000000, -0.024991,  6.924401 )     1.76372677
  WF centre and spread   19  (  0.000000,  0.027454,  6.924371 )     1.76518138
  WF centre and spread   20  ( -0.000000, -0.002624, 10.102666 )     1.88165933
  WF centre and spread   21  (  0.000000, -0.025506,  9.941468 )     1.76518219
  WF centre and spread   22  (  0.000000,  0.028049,  9.941500 )     1.76662705
  Sum of centres and spreads ( 17.544998,-10.129229,103.898633 )    39.65229933
 
    100    -0.620E-05     0.0036800297       39.6522990746       2.87  <-- CONV
        O_D=      0.0832120 O_OD=      2.5967592 O_TOT=     39.6522991 <-- SPRD
 Delta: O_D= -0.3635514E-05 O_OD= -0.2559539E-05 O_TOT= -0.6195053E-05 <-- DLTA
 ------------------------------------------------------------------------------

 Writing checkpoint file wannier90.chk... done

 Final State
  WF centre and spread    1  (  0.000000,  0.000917,  1.011522 )     1.49649990
  WF centre and spread    2  ( -0.000000, -0.044962,  1.012449 )     1.79514002
  WF centre and spread    3  (  0.000000,  0.045460,  1.012449 )     1.79505710
  WF centre and spread    4  ( -0.000000, -0.111001,  1.012345 )     1.63543614
  WF centre and spread    5  (  0.000000,  0.109273,  1.012346 )     1.63582733
  WF centre and spread    6  (  1.595000, -0.922337,  8.434242 )     1.88860837
  WF centre and spread    7  (  1.595000, -0.870353,  8.432783 )     2.23810813
  WF centre and spread    8  (  1.595000, -0.972070,  8.432783 )     2.23735255
  WF centre and spread    9  (  1.595000, -0.783300,  8.433000 )     2.02968919
  WF centre and spread   10  (  1.595000, -1.055651,  8.432999 )     2.03041803
  WF centre and spread   11  (  1.595000, -0.919685, -0.647867 )     1.74822051
  WF centre and spread   12  (  1.595000, -0.911198, -0.508167 )     1.63516890
  WF centre and spread   13  (  1.595000, -0.931639, -0.508173 )     1.63619665
  WF centre and spread   14  (  1.595000, -0.919725,  2.670730 )     1.75317536
  WF centre and spread   15  (  1.595000, -0.911516,  2.533021 )     1.63448583
  WF centre and spread   16  (  1.595000, -0.931278,  2.533027 )     1.63551454
  WF centre and spread   17  ( -0.000000, -0.002547,  6.764738 )     1.88502405
  WF centre and spread   18  (  0.000000, -0.024991,  6.924401 )     1.76372677
  WF centre and spread   19  (  0.000000,  0.027454,  6.924371 )     1.76518138
  WF centre and spread   20  ( -0.000000, -0.002624, 10.102666 )     1.88165933
  WF centre and spread   21  (  0.000000, -0.025506,  9.941468 )     1.76518219
  WF centre and spread   22  (  0.000000,  0.028049,  9.941500 )     1.76662705
  Sum of centres and spreads ( 17.544998,-10.129229,103.898633 )    39.65229933
 
         Spreads (Ang^2)       Omega I      =    36.972327876
        ================       Omega D      =     0.083212012
                               Omega OD     =     2.596759186
    Final Spread (Ang^2)       Omega Total  =    39.652299075
 ------------------------------------------------------------------------------
 Time for wannierise            2.907 (sec)

 Writing checkpoint file wannier90.chk... done

 *---------------------------------------------------------------------------*
 |                               PLOTTING                                    |
 *---------------------------------------------------------------------------*
 
      Wannier Function Num:    1       Maximum Im/Re Ratio =    0.000004
      Wannier Function Num:    2       Maximum Im/Re Ratio =    0.000003
      Wannier Function Num:    3       Maximum Im/Re Ratio =    0.000004
      Wannier Function Num:    4       Maximum Im/Re Ratio =    0.000002
      Wannier Function Num:    5       Maximum Im/Re Ratio =    0.000002
      Wannier Function Num:    6       Maximum Im/Re Ratio =    0.000004
      Wannier Function Num:    7       Maximum Im/Re Ratio =    0.000004
      Wannier Function Num:    8       Maximum Im/Re Ratio =    0.000006
      Wannier Function Num:    9       Maximum Im/Re Ratio =    0.000004
      Wannier Function Num:   10       Maximum Im/Re Ratio =    0.000003
      Wannier Function Num:   11       Maximum Im/Re Ratio =    0.000005
      Wannier Function Num:   12       Maximum Im/Re Ratio =    0.000002
      Wannier Function Num:   13       Maximum Im/Re Ratio =    0.000003
      Wannier Function Num:   14       Maximum Im/Re Ratio =    0.000002
      Wannier Function Num:   15       Maximum Im/Re Ratio =    0.000001
      Wannier Function Num:   16       Maximum Im/Re Ratio =    0.000000
      Wannier Function Num:   17       Maximum Im/Re Ratio =    0.000001
      Wannier Function Num:   18       Maximum Im/Re Ratio =    0.000001
      Wannier Function Num:   19       Maximum Im/Re Ratio =    0.000002
      Wannier Function Num:   20       Maximum Im/Re Ratio =    0.000006
      Wannier Function Num:   21       Maximum Im/Re Ratio =    0.000002
      Wannier Function Num:   22       Maximum Im/Re Ratio =    0.000003
  
 Time for plotting           2330.587 (sec)
 Total Execution Time        2333.952 (sec)

 *===========================================================================*
 |                             TIMING INFORMATION                            |
 *===========================================================================*
 |    Tag                                                Ncalls      Time (s)|
 |---------------------------------------------------------------------------|
 |kmesh: get                                        :         1         0.081|
 |overlap: allocate                                 :         1         0.006|
 |overlap: read                                     :         1         0.332|
 |wann: main                                        :         1         2.907|
 |plot: main                                        :         1      2330.587|
 *---------------------------------------------------------------------------*
 
 All done: wannier90 exiting
