 vasp.5.4.1 05Feb16 (build Jun 14 2016 02:33:03) complex                        
  
 executed on           IFC91_ompi date 2016.06.14  04:14:08
 running on    1 total cores
 distrk:  each k-point on    1 cores,    1 groups
 distr:  one band on NCORES_PER_BAND=   1 cores,    1 groups


--------------------------------------------------------------------------------------------------------


 INCAR:
 POTCAR:    PAW_PBE Mo 08Apr2002                  
 POTCAR:    PAW_PBE S 06Sep2000                   
 POTCAR:    PAW_PBE Mo 08Apr2002                  
   VRHFIN =Mo: 4p5s4d                                                           
   LEXCH  = PE                                                                  
   EATOM  =   217.5176 eV,   15.9871 Ry                                         
                                                                                
   TITEL  = PAW_PBE Mo 08Apr2002                                                
   LULTRA =        F    use ultrasoft PP ?                                      
   IUNSCR =        1    unscreen: 0-lin 1-nonlin 2-no                           
   RPACOR =    2.200    partial core radius                                     
   POMASS =   95.940; ZVAL   =    6.000    mass and valenz                      
   RCORE  =    2.750    outmost cutoff radius                                   
   RWIGS  =    2.750; RWIGS  =    1.455    wigner-seitz radius (au A)           
   ENMAX  =  224.584; ENMIN  =  168.438 eV                                      
   RCLOC  =    2.111    cutoff for local pot                                    
   LCOR   =        T    correct aug charges                                     
   LPAW   =        T    paw PP                                                  
   EAUG   =  345.278                                                            
   DEXC   =    0.000                                                            
   RMAX   =    2.821    core radius for proj-oper                               
   RAUG   =    1.300    factor for augmentation sphere                          
   RDEP   =    2.815    radius for radial grids                                 
   RDEPT  =    2.211    core radius for aug-charge                              
                                                                                
   Atomic configuration                                                         
   12 entries                                                                   
     n  l   j            E        occ.                                          
     1  0  0.50    -19819.0341   2.0000                                         
     2  0  0.50     -2799.0127   2.0000                                         
     2  1  1.50     -2502.0276   6.0000                                         
     3  0  0.50      -476.4448   2.0000                                         
     3  1  1.50      -379.1496   6.0000                                         
     3  2  2.50      -220.9367  10.0000                                         
     4  0  0.50       -64.3378   2.0000                                         
     4  1  1.50       -38.4773   6.0000                                         
     4  2  2.50        -3.7535   5.0000                                         
     5  0  0.50        -4.0862   1.0000                                         
     5  1  0.50        -2.7701   0.0000                                         
     4  3  2.50        -1.3606   0.0000                                         
   Description                                                                  
     l       E           TYP  RCUT    TYP  RCUT                                 
     2     -3.7534765     23  2.500                                             
     2     -5.1140591     23  2.500                                             
     0     -4.0861560     23  2.600                                             
     0     13.6058260     23  2.600                                             
     1      5.4423304     23  2.750                                             
     1     27.2116520     23  2.750                                             
  local pseudopotential read in
  partial core-charges read in
  partial kinetic energy density read in
  atomic valenz-charges read in
  non local Contribution for L=           2  read in
    real space projection operators read in
  non local Contribution for L=           2  read in
    real space projection operators read in
  non local Contribution for L=           0  read in
    real space projection operators read in
  non local Contribution for L=           0  read in
    real space projection operators read in
  non local Contribution for L=           1  read in
    real space projection operators read in
  non local Contribution for L=           1  read in
    real space projection operators read in
    PAW grid and wavefunctions read in
 
   number of l-projection  operators is LMAX  =           6
   number of lm-projection operators is LMMAX =          18
 
 POTCAR:    PAW_PBE S 06Sep2000                   
   VRHFIN =S : s2p4                                                             
   LEXCH  = PE                                                                  
   EATOM  =   276.8230 eV,   20.3459 Ry                                         
                                                                                
   TITEL  = PAW_PBE S 06Sep2000                                                 
   LULTRA =        F    use ultrasoft PP ?                                      
   IUNSCR =        1    unscreen: 0-lin 1-nonlin 2-no                           
   RPACOR =    1.500    partial core radius                                     
   POMASS =   32.066; ZVAL   =    6.000    mass and valenz                      
   RCORE  =    1.900    outmost cutoff radius                                   
   RWIGS  =    2.200; RWIGS  =    1.164    wigner-seitz radius (au A)           
   ENMAX  =  258.689; ENMIN  =  194.016 eV                                      
   ICORE  =        2    local potential                                         
   LCOR   =        T    correct aug charges                                     
   LPAW   =        T    paw PP                                                  
   EAUG   =  335.092                                                            
   DEXC   =    0.000                                                            
   RMAX   =    1.942    core radius for proj-oper                               
   RAUG   =    1.300    factor for augmentation sphere                          
   RDEP   =    1.954    radius for radial grids                                 
   RDEPT  =    1.744    core radius for aug-charge                              
                                                                                
   Atomic configuration                                                         
    6 entries                                                                   
     n  l   j            E        occ.                                          
     1  0  0.50     -2405.8406   2.0000                                         
     2  0  0.50      -211.7007   2.0000                                         
     2  1  1.50      -156.4958   6.0000                                         
     3  0  0.50       -17.2562   2.0000                                         
     3  1  0.50        -7.0085   4.0000                                         
     3  2  1.50        -6.8029   0.0000                                         
   Description                                                                  
     l       E           TYP  RCUT    TYP  RCUT                                 
     0    -17.2561641     23  1.900                                             
     0    -15.8743224     23  1.900                                             
     1     -7.0085400     23  1.900                                             
     1     -2.7779785     23  1.900                                             
     2     -6.8029130     23  1.900                                             
  local pseudopotential read in
  partial core-charges read in
  partial kinetic energy density read in
  atomic valenz-charges read in
  non local Contribution for L=           0  read in
    real space projection operators read in
  non local Contribution for L=           0  read in
    real space projection operators read in
  non local Contribution for L=           1  read in
    real space projection operators read in
  non local Contribution for L=           1  read in
    real space projection operators read in
    PAW grid and wavefunctions read in
 
   number of l-projection  operators is LMAX  =           4
   number of lm-projection operators is LMMAX =           8
 

 ----------------------------------------------------------------------------- 
|                                                                             |
|  ADVICE TO THIS USER RUNNING 'VASP/VAMP'   (HEAR YOUR MASTER'S VOICE ...):  |
|                                                                             |
|      You have a (more or less) 'small supercell' and for smaller cells      |
|      it is recommended  to use the reciprocal-space projection scheme!      |
|      The real space optimization is not  efficient for small cells and it   |
|      is also less accurate ...                                              |
|      Therefore set LREAL=.FALSE. in the  INCAR file                         |
|                                                                             |
 ----------------------------------------------------------------------------- 

 Optimization of the real space projectors (new method)

 maximal supplied QI-value         = 13.61
 optimisation between [QCUT,QGAM] = [ 10.75, 21.63] = [ 32.35,131.06] Ry 
 Optimized for a Real-space Cutoff    1.70 Angstroem

   l    n(q)    QCUT    max X(q) W(low)/X(q) W(high)/X(q)  e(spline) 
   2     10    10.749    80.908    0.19E-03    0.56E-04    0.51E-06
   2     10    10.749    79.000    0.19E-03    0.56E-04    0.50E-06
   0     11    10.749    52.066    0.38E-04    0.97E-05    0.21E-06
   0     11    10.749    24.514    0.25E-04    0.84E-05    0.17E-06
   1     11    10.749    16.033    0.90E-04    0.30E-04    0.16E-06
   1     11    10.749    11.179    0.71E-04    0.24E-04    0.12E-06
 Optimization of the real space projectors (new method)

 maximal supplied QI-value         = 19.84
 optimisation between [QCUT,QGAM] = [ 10.71, 21.63] = [ 32.15,130.99] Ry 
 Optimized for a Real-space Cutoff    1.23 Angstroem

   l    n(q)    QCUT    max X(q) W(low)/X(q) W(high)/X(q)  e(spline) 
   0      8    10.715   187.594    0.17E-03    0.39E-04    0.63E-07
   0      8    10.715   164.243    0.17E-03    0.39E-04    0.62E-07
   1      7    10.715    67.533    0.17E-03    0.42E-03    0.88E-07
   1      7    10.715    50.729    0.17E-03    0.42E-03    0.86E-07
  PAW_PBE Mo 08Apr2002                  :
 energy of atom  1       EATOM= -217.5176
 kinetic energy error for atom=    0.0023 (will be added to EATOM!!)
  PAW_PBE S 06Sep2000                   :
 energy of atom  2       EATOM= -276.8230
 kinetic energy error for atom=    0.0033 (will be added to EATOM!!)
 
 
 POSCAR: Mon 06 Jul 2015 11:02:32 AM CEST        
  positions in direct lattice
  No initial velocities read in
 exchange correlation table for  LEXCH =        8
   RHO(1)=    0.500       N(1)  =     2000
   RHO(2)=  100.500       N(2)  =     4000
 


--------------------------------------------------------------------------------------------------------


 ion  position               nearest neighbor table
   1  0.000  0.056  0.000-   3 2.58   6 2.58   3 2.58   6 2.58   3 2.58   6 2.58
   2  0.333  0.275  0.667-   5 2.58   5 2.58   5 2.58   4 2.58   4 2.58   4 2.58
   3  0.333  0.000  0.667-   1 2.58   1 2.58   1 2.58
   4  0.000  0.331  0.000-   2 2.58   2 2.58   2 2.58
   5  0.000  0.219  0.000-   2 2.58   2 2.58   2 2.58
   6  0.333  0.112  0.667-   1 2.58   1 2.58   1 2.58
 
  LATTYP: Found a hexagonal cell.
 ALAT       =     3.4000000000
 C/A-ratio  =     8.7923105882
  
  Lattice vectors:
  
 A1 = (  -3.4000000000,   0.0000000000,   0.0000000000)
 A2 = (   1.7000000000,   0.0000000000,  -2.9444860000)
 A3 = (   0.0000000000, -29.8938560000,   0.0000000000)


Analysis of symmetry for initial positions (statically):
=====================================================================
 Subroutine PRICEL returns:
 Original cell was already a primitive cell.
 

 Routine SETGRP: Setting up the symmetry group for a 
 hexagonal supercell.


 Subroutine GETGRP returns: Found 12 space group operations
 (whereof  6 operations were pure point group operations)
 out of a pool of 24 trial point group operations.


The static configuration has the point symmetry C_3v.
 The point group associated with its full space group is D_3d.


Analysis of symmetry for dynamics (positions and initial velocities):
=====================================================================
 Subroutine PRICEL returns:
 Original cell was already a primitive cell.
 

 Routine SETGRP: Setting up the symmetry group for a 
 hexagonal supercell.


 Subroutine GETGRP returns: Found 12 space group operations
 (whereof  6 operations were pure point group operations)
 out of a pool of 24 trial point group operations.


The dynamic configuration has the point symmetry C_3v.
 The point group associated with its full space group is D_3d.


Analysis of constrained symmetry for selective dynamics:
=====================================================================
 Subroutine PRICEL returns:
 Original cell was already a primitive cell.
 

 Routine SETGRP: Setting up the symmetry group for a 
 hexagonal supercell.


 Subroutine GETGRP returns: Found 12 space group operations
 (whereof  6 operations were pure point group operations)
 out of a pool of 24 trial point group operations.


The constrained configuration has the point symmetry C_3v.
 The point group associated with its full space group is D_3d.


 Subroutine INISYM returns: Found 12 space group operations
 (whereof  6 operations are pure point group operations),
 and found     1 'primitive' translations

 
 
 KPOINTS: 8x1x8                                   

Automatic generation of k-mesh.
Space group operators:
 irot       det(A)        alpha          n_x          n_y          n_z        tau_x        tau_y        tau_z
    1     1.000000     0.000000     1.000000     0.000000     0.000000     0.000000     0.000000     0.000000
    2     1.000000   120.000000     0.000000     1.000000     0.000000     0.000000     0.000000     0.000000
    3     1.000000   120.000000     0.000000    -1.000000     0.000000     0.000000     0.000000     0.000000
    4    -1.000000   180.000000     1.000000     0.000000     0.000000     0.000000     0.000000     0.000000
    5    -1.000000   180.000000     0.500000     0.000000    -0.866025     0.000000     0.000000     0.000000
    6    -1.000000   180.000000    -0.500000     0.000000    -0.866025     0.000000     0.000000     0.000000
    7    -1.000000     0.000000     1.000000     0.000000     0.000000    -0.666667    -0.669034    -0.333333
    8    -1.000000   120.000000     0.000000     1.000000     0.000000    -0.666667    -0.669034    -0.333333
    9    -1.000000   120.000000     0.000000    -1.000000     0.000000    -0.666667    -0.669034    -0.333333
   10     1.000000   180.000000     1.000000     0.000000     0.000000    -0.666667    -0.669034    -0.333333
   11     1.000000   180.000000     0.500000     0.000000    -0.866025    -0.666667    -0.669034    -0.333333
   12     1.000000   180.000000    -0.500000     0.000000    -0.866025    -0.666667    -0.669034    -0.333333
 
 Subroutine IBZKPT returns following result:
 ===========================================
 
 Found     10 irreducible k-points:
 
 Following reciprocal coordinates:
            Coordinates               Weight
  0.000000  0.000000  0.000000      1.000000
  0.125000  0.000000  0.000000      6.000000
  0.250000  0.000000  0.000000      6.000000
  0.375000  0.000000  0.000000      6.000000
  0.500000  0.000000  0.000000      3.000000
  0.125000  0.000000  0.125000      6.000000
  0.250000  0.000000  0.125000     12.000000
  0.375000  0.000000  0.125000     12.000000
  0.250000  0.000000  0.250000      6.000000
  0.375000  0.000000  0.250000      6.000000
 
 Following cartesian coordinates:
            Coordinates               Weight
  0.000000  0.000000  0.000000      1.000000
  0.036765  0.000000  0.021226      6.000000
  0.073529  0.000000  0.042452      6.000000
  0.110294  0.000000  0.063678      6.000000
  0.147059  0.000000  0.084904      3.000000
  0.036765  0.000000  0.063678      6.000000
  0.073529  0.000000  0.084904     12.000000
  0.110294  0.000000  0.106131     12.000000
  0.073529  0.000000  0.127357      6.000000
  0.110294  0.000000  0.148583      6.000000
 
 
 Subroutine IBZKPT_HF returns following result:
 ==============================================
 
 Found     64 k-points in 1st BZ
 the following     64 k-points will be used (e.g. in the exchange kernel)
 Following reciprocal coordinates:   # in IRBZ
  0.000000  0.000000  0.000000    0.01562500   1 t-inv F
  0.125000  0.000000  0.000000    0.01562500   2 t-inv F
  0.250000  0.000000  0.000000    0.01562500   3 t-inv F
  0.375000  0.000000  0.000000    0.01562500   4 t-inv F
  0.500000  0.000000  0.000000    0.01562500   5 t-inv F
  0.125000  0.000000  0.125000    0.01562500   6 t-inv F
  0.250000  0.000000  0.125000    0.01562500   7 t-inv F
  0.375000  0.000000  0.125000    0.01562500   8 t-inv F
  0.250000  0.000000  0.250000    0.01562500   9 t-inv F
  0.375000  0.000000  0.250000    0.01562500  10 t-inv F
 -0.125000  0.000000  0.125000    0.01562500   2 t-inv F
  0.000000  0.000000 -0.125000    0.01562500   2 t-inv F
 -0.125000  0.000000  0.000000    0.01562500   2 t-inv F
  0.125000  0.000000 -0.125000    0.01562500   2 t-inv F
  0.000000  0.000000  0.125000    0.01562500   2 t-inv F
 -0.250000  0.000000  0.250000    0.01562500   3 t-inv F
  0.000000  0.000000 -0.250000    0.01562500   3 t-inv F
 -0.250000  0.000000  0.000000    0.01562500   3 t-inv F
  0.250000  0.000000 -0.250000    0.01562500   3 t-inv F
  0.000000  0.000000  0.250000    0.01562500   3 t-inv F
 -0.375000  0.000000  0.375000    0.01562500   4 t-inv F
  0.000000  0.000000 -0.375000    0.01562500   4 t-inv F
 -0.375000  0.000000 -0.000000    0.01562500   4 t-inv F
  0.375000  0.000000 -0.375000    0.01562500   4 t-inv F
 -0.000000  0.000000  0.375000    0.01562500   4 t-inv F
 -0.500000  0.000000  0.500000    0.01562500   5 t-inv F
  0.000000  0.000000 -0.500000    0.01562500   5 t-inv F
 -0.250000  0.000000  0.125000    0.01562500   6 t-inv F
  0.125000  0.000000 -0.250000    0.01562500   6 t-inv F
 -0.125000  0.000000  0.250000    0.01562500   6 t-inv F
  0.250000  0.000000 -0.125000    0.01562500   6 t-inv F
 -0.125000  0.000000 -0.125000    0.01562500   6 t-inv F
 -0.375000  0.000000  0.250000    0.01562500   7 t-inv F
  0.125000  0.000000 -0.375000    0.01562500   7 t-inv F
 -0.250000  0.000000  0.375000    0.01562500   7 t-inv F
  0.375000  0.000000 -0.125000    0.01562500   7 t-inv F
 -0.125000  0.000000 -0.250000    0.01562500   7 t-inv F
 -0.250000  0.000000 -0.125000    0.01562500   7 t-inv F
  0.375000  0.000000 -0.250000    0.01562500   7 t-inv F
 -0.125000  0.000000  0.375000    0.01562500   7 t-inv F
  0.250000  0.000000 -0.375000    0.01562500   7 t-inv F
 -0.375000  0.000000  0.125000    0.01562500   7 t-inv F
  0.125000  0.000000  0.250000    0.01562500   7 t-inv F
 -0.500000  0.000000  0.375000    0.01562500   8 t-inv F
  0.125000  0.000000 -0.500000    0.01562500   8 t-inv F
 -0.375000  0.000000  0.500000    0.01562500   8 t-inv F
  0.500000  0.000000 -0.125000    0.01562500   8 t-inv F
 -0.125000  0.000000 -0.375000    0.01562500   8 t-inv F
 -0.375000  0.000000 -0.125000    0.01562500   8 t-inv F
  0.500000  0.000000 -0.375000    0.01562500   8 t-inv F
 -0.125000  0.000000  0.500000    0.01562500   8 t-inv F
  0.375000  0.000000 -0.500000    0.01562500   8 t-inv F
 -0.500000  0.000000  0.125000    0.01562500   8 t-inv F
  0.125000  0.000000  0.375000    0.01562500   8 t-inv F
 -0.500000  0.000000  0.250000    0.01562500   9 t-inv F
  0.250000  0.000000 -0.500000    0.01562500   9 t-inv F
 -0.250000  0.000000  0.500000    0.01562500   9 t-inv F
  0.500000  0.000000 -0.250000    0.01562500   9 t-inv F
 -0.250000  0.000000 -0.250000    0.01562500   9 t-inv F
 -0.625000  0.000000  0.375000    0.01562500  10 t-inv F
  0.250000  0.000000 -0.625000    0.01562500  10 t-inv F
 -0.375000  0.000000  0.625000    0.01562500  10 t-inv F
  0.625000  0.000000 -0.250000    0.01562500  10 t-inv F
 -0.250000  0.000000 -0.375000    0.01562500  10 t-inv F


--------------------------------------------------------------------------------------------------------




 Dimension of arrays:
   k-points           NKPTS =     10   k-points in BZ     NKDIM =     10   number of bands    NBANDS=     40
   number of dos      NEDOS =    301   number of ions     NIONS =      6
   non local maximal  LDIM  =      6   non local SUM 2l+1 LMDIM =     18
   total plane-waves  NPLWV = 120960
   max r-space proj   IRMAX =   8342   max aug-charges    IRDMAX=  26146
   dimension x,y,z NGX =    24 NGY =  210 NGZ =   24
   dimension x,y,z NGXF=    48 NGYF=  420 NGZF=   48
   support grid    NGXF=    48 NGYF=  420 NGZF=   48
   ions per type =               2   4
 NGX,Y,Z   is equivalent  to a cutoff of  11.74, 11.68, 11.74 a.u.
 NGXF,Y,Z  is equivalent  to a cutoff of  23.47, 23.36, 23.47 a.u.


 I would recommend the setting:
   dimension x,y,z NGX =    24 NGY =  207 NGZ =   24
 SYSTEM =  MoS2_dl                                 
 POSCAR =  Mon 06 Jul 2015 11:02:32 AM CEST        

 Startparameter for this run:
   NWRITE =      2    write-flag & timer
   PREC   = acc       normal or accurate (medium, high low for compatibility)
   ISTART =      1    job   : 0-new  1-cont  2-samecut
   ICHARG =      0    charge: 1-file 2-atom 10-const
   ISPIN  =      1    spin polarized calculation?
   LNONCOLLINEAR =      F non collinear calculations
   LSORBIT =      F    spin-orbit coupling
   INIWAV =      1    electr: 0-lowe 1-rand  2-diag
   LASPH  =      F    aspherical Exc in radial PAW
   METAGGA=      F    non-selfconsistent MetaGGA calc.

 Electronic Relaxation 1
   ENCUT  =  450.0 eV  33.07 Ry    5.75 a.u.   5.88 51.71  5.88*2*pi/ulx,y,z
   ENINI  =  450.0     initial cutoff
   ENAUG  =  345.3 eV  augmentation charge cutoff
   NELM   =     60;   NELMIN=  2; NELMDL=  0     # of ELM steps 
   EDIFF  = 0.1E-05   stopping-criterion for ELM
   LREAL  =      T    real-space projection
   NLSPLINE    = F    spline interpolate recip. space projectors
   LCOMPAT=      F    compatible to vasp.4.4
   GGA_COMPAT  = T    GGA compatible to vasp.4.4-vasp.4.6
   LMAXPAW     = -100 max onsite density
   LMAXMIX     =    2 max onsite mixed and CHGCAR
   VOSKOWN=      0    Vosko Wilk Nusair interpolation
   ROPT   =   -0.00025  -0.00025
 Ionic relaxation
   EDIFFG = 0.1E-04   stopping-criterion for IOM
   NSW    =      0    number of steps for IOM
   NBLOCK =      1;   KBLOCK =      1    inner block; outer block 
   IBRION =     -1    ionic relax: 0-MD 1-quasi-New 2-CG
   NFREE  =      0    steps in history (QN), initial steepest desc. (CG)
   ISIF   =      2    stress and relaxation
   IWAVPR =     10    prediction:  0-non 1-charg 2-wave 3-comb
   ISYM   =      2    0-nonsym 1-usesym 2-fastsym
   LCORR  =      T    Harris-Foulkes like correction to forces

   POTIM  = 0.5000    time-step for ionic-motion
   TEIN   =    0.0    initial temperature
   TEBEG  =    0.0;   TEEND  =   0.0 temperature during run
   SMASS  =  -3.00    Nose mass-parameter (am)
   estimated Nose-frequenzy (Omega)   =  0.10E-29 period in steps =****** mass=  -0.264E-27a.u.
   SCALEE = 1.0000    scale energy and forces
   NPACO  =    256;   APACO  = 16.0  distance and # of slots for P.C.
   PSTRESS=    0.0 pullay stress

  Mass of Ions in am
   POMASS =  95.94 32.07
  Ionic Valenz
   ZVAL   =   6.00  6.00
  Atomic Wigner-Seitz radii
   RWIGS  =  -1.00 -1.00
  virtual crystal weights 
   VCA    =   1.00  1.00
   NELECT =      36.0000    total number of electrons
   NUPDOWN=      -1.0000    fix difference up-down

 DOS related values:
   EMIN   =  10.00;   EMAX   =-10.00  energy-range for DOS
   EFERMI =   0.00
   ISMEAR =     0;   SIGMA  =   0.05  broadening in eV -4-tet -1-fermi 0-gaus

 Electronic relaxation 2 (details)
   IALGO  =      2    algorithm
   LDIAG  =      T    sub-space diagonalisation (order eigenvalues)
   LSUBROT=      F    optimize rotation matrix (better conditioning)
   TURBO    =      0    0=normal 1=particle mesh
   IRESTART =      0    0=no restart 2=restart with 2 vectors
   NREBOOT  =      0    no. of reboots
   NMIN     =      0    reboot dimension
   EREF     =   0.00    reference energy to select bands
   IMIX   =      4    mixing-type and parameters
     AMIX     =   0.40;   BMIX     =  1.00
     AMIX_MAG =   1.60;   BMIX_MAG =  1.00
     AMIN     =   0.10
     WC   =   100.;   INIMIX=   1;  MIXPRE=   1;  MAXMIX= -45

 Intra band minimization:
   WEIMIN = 0.0000     energy-eigenvalue tresh-hold
   EBREAK =  0.62E-08  absolut break condition
   DEPER  =   0.30     relativ break condition  

   TIME   =   0.40     timestep for ELM

  volume/ion in A,a.u.               =      49.88       336.60
  Fermi-wavevector in a.u.,A,eV,Ry     =   0.808138  1.527159  8.885789  0.653087
  Thomas-Fermi vector in A             =   1.916888
 
 Write flags
   LWAVE  =      F    write WAVECAR
   LCHARG =      F    write CHGCAR
   LVTOT  =      F    write LOCPOT, total local potential
   LVHAR  =      F    write LOCPOT, Hartree potential only
   LELF   =      F    write electronic localiz. function (ELF)
   LORBIT =      0    0 simple, 1 ext, 2 COOP (PROOUT)


 Dipole corrections
   LMONO  =      F    monopole corrections only (constant potential shift)
   LDIPOL =      F    correct potential (dipole corrections)
   IDIPOL =      0    1-x, 2-y, 3-z, 4-all directions 
   EPSILON=  1.0000000 bulk dielectric constant

 Exchange correlation treatment:
   GGA     =    --    GGA type
   LEXCH   =     8    internal setting for exchange type
   VOSKOWN=      0    Vosko Wilk Nusair interpolation
   LHFCALC =     F    Hartree Fock is set to
   LHFONE  =     F    Hartree Fock one center treatment
   AEXX    =    0.0000 exact exchange contribution

 Linear response parameters
   LEPSILON=     F    determine dielectric tensor
   LRPA    =     F    only Hartree local field effects (RPA)
   LNABLA  =     F    use nabla operator in PAW spheres
   LVEL    =     F    velocity operator in full k-point grid
   LINTERFAST=   F  fast interpolation
   KINTER  =     0    interpolate to denser k-point grid
   CSHIFT  =0.1000    complex shift for real part using Kramers Kronig
   OMEGAMAX=  -1.0    maximum frequency
   DEG_THRESHOLD= 0.2000000E-02 threshold for treating states as degnerate
   RTIME   =    0.100 relaxation time in fs

 Orbital magnetization related:
   ORBITALMAG=     F  switch on orbital magnetization
   LCHIMAG   =     F  perturbation theory with respect to B field
   DQ        =  0.001000  dq finite difference perturbation B field



--------------------------------------------------------------------------------------------------------


 Static calculation
 charge density and potential will be updated during run
 non-spin polarized calculation
 None: do nothing, only one-electron occupancies are recalculated
    band-by band algorithm
 perform Loewdin sub-space diagonalisation
    ordering is kept fixed
    before iterative eigenvector-optimisation
 modified Broyden-mixing scheme, WC =      100.0
 initial mixing is a Kerker type mixing with AMIX =  0.4000 and BMIX =      1.0000
 Hartree-type preconditioning will be used
 using additional bands           22
 real space projection scheme for non local part
 use partial core corrections
 calculate Harris-corrections to forces 
   (improved forces if not selfconsistent)
 use gradient corrections 
 use of overlap-Matrix (Vanderbilt PP)
 Gauss-broadening in eV      SIGMA  =   0.05


--------------------------------------------------------------------------------------------------------


  energy-cutoff  :      450.00
  volume of cell :      299.27
      direct lattice vectors                 reciprocal lattice vectors
     3.400000000  0.000000000  0.000000000     0.294117647  0.000000000  0.169808924
     0.000000000 29.893856000  0.000000000     0.000000000  0.033451690  0.000000000
    -1.700000000  0.000000000  2.944486000     0.000000000  0.000000000  0.339617848

  length of vectors
     3.400000000 29.893856000  3.399999677     0.339617816  0.033451690  0.339617848


 
 old parameters found on file WAVECAR:
  energy-cutoff  :      450.00
  volume of cell :      299.27
      direct lattice vectors                 reciprocal lattice vectors
     3.400000000  0.000000000  0.000000000     0.294117647  0.000000000  0.169808924
     0.000000000 29.893856000  0.000000000     0.000000000  0.033451690  0.000000000
    -1.700000000  0.000000000  2.944486000     0.000000000  0.000000000  0.339617848

  length of vectors

 
 k-points in units of 2pi/SCALE and weight: 8x1x8                                   
   0.00000000  0.00000000  0.00000000       0.016
   0.03676471  0.00000000  0.02122612       0.094
   0.07352941  0.00000000  0.04245223       0.094
   0.11029412  0.00000000  0.06367835       0.094
   0.14705882  0.00000000  0.08490446       0.047
   0.03676471  0.00000000  0.06367835       0.094
   0.07352941  0.00000000  0.08490446       0.188
   0.11029412  0.00000000  0.10613058       0.188
   0.07352941  0.00000000  0.12735669       0.094
   0.11029412  0.00000000  0.14858281       0.094
 
 k-points in reciprocal lattice and weights: 8x1x8                                   
   0.00000000  0.00000000  0.00000000       0.016
   0.12500000  0.00000000  0.00000000       0.094
   0.25000000  0.00000000  0.00000000       0.094
   0.37500000  0.00000000  0.00000000       0.094
   0.50000000  0.00000000  0.00000000       0.047
   0.12500000  0.00000000  0.12500000       0.094
   0.25000000  0.00000000  0.12500000       0.188
   0.37500000  0.00000000  0.12500000       0.188
   0.25000000  0.00000000  0.25000000       0.094
   0.37500000  0.00000000  0.25000000       0.094
 
 position of ions in fractional coordinates (direct lattice) 
   0.00000000  0.05619900  0.00000000
   0.33333300  0.27476700  0.66666700
   0.33333300  0.00000000  0.66666700
   0.00000000  0.33096600  0.00000000
   0.00000000  0.21856900  0.00000000
   0.33333300  0.11239800  0.66666700
 
 position of ions in cartesian coordinates  (Angst):
   0.00000000  1.68000481  0.00000000
  -0.00000170  8.21384513  1.96299165
  -0.00000170  0.00000000  1.96299165
   0.00000000  9.89384994  0.00000000
   0.00000000  6.53387021  0.00000000
  -0.00000170  3.36000963  1.96299165
 


--------------------------------------------------------------------------------------------------------


 k-point  1 :   0.0000 0.0000 0.0000  plane waves:    6433
 k-point  2 :   0.1250 0.0000 0.0000  plane waves:    6420
 k-point  3 :   0.2500 0.0000 0.0000  plane waves:    6452
 k-point  4 :   0.3750 0.0000 0.0000  plane waves:    6510
 k-point  5 :   0.5000 0.0000 0.0000  plane waves:    6524
 k-point  6 :   0.1250 0.0000 0.1250  plane waves:    6444
 k-point  7 :   0.2500 0.0000 0.1250  plane waves:    6500
 k-point  8 :   0.3750 0.0000 0.1250  plane waves:    6500
 k-point  9 :   0.2500 0.0000 0.2500  plane waves:    6524
 k-point 10 :   0.3750 0.0000 0.2500  plane waves:    6502

 maximum and minimum number of plane-waves per node :      6524     6420

 maximum number of plane-waves:      6524
 maximum index in each direction: 
   IXMAX=    5   IYMAX=   51   IZMAX=    5
   IXMIN=   -6   IYMIN=  -51   IZMIN=   -6

 NGX is ok and might be reduce to  24
 NGY is ok and might be reduce to 206
 NGZ is ok and might be reduce to  24

 serial   3D FFT for wavefunctions
 parallel 3D FFT for charge:
    minimum data exchange during FFTs selected (reduces bandwidth)


 total amount of memory used by VASP on root node   171611. kBytes
========================================================================

   base      :      30000. kBytes
   nonlr-proj:       4257. kBytes
   fftplans  :      34352. kBytes
   grid      :      60721. kBytes
   one-center:         93. kBytes
   wavefun   :      42188. kBytes
 
     INWAV:  cpu time    0.1120: real time    0.1112
 Broyden mixing: mesh for mixing (old mesh)
   NGX = 11   NGY =103   NGZ = 11
  (NGX  = 48   NGY  =420   NGZ  = 48)
  gives a total of  12463 points

 charge density for first step will be calculated from the start-wavefunctions


--------------------------------------------------------------------------------------------------------


 Maximum index for non-local projection operator         8082
 Maximum index for augmentation-charges        25102 (set IRDMAX)


--------------------------------------------------------------------------------------------------------


 initial charge from wavefunction
 First call to EWALD:  gamma=   0.265
 Maximum number of real-space cells 6x 1x 6
 Maximum number of reciprocal cells 2x11x 2

 FEWALD executed in parallel
    FEWALD:  cpu time    0.0010: real time    0.0012


----------------------------------------- Iteration    1(   1)  ---------------------------------------


    POTLOK:  cpu time    0.4039: real time    0.4052
    SETDIJ:  cpu time    0.0170: real time    0.0163
    EDDIAG:  cpu time    0.0000: real time    0.0000
       DOS:  cpu time    0.0000: real time    0.0003
    CHARGE:  cpu time    0.2670: real time    0.2677
    MIXING:  cpu time    0.0110: real time    0.0114
    --------------------------------------------
      LOOP:  cpu time    0.6999: real time    0.7022

 eigenvalue-minimisations  :     0
 total energy-change (2. order) :-0.4184209E+02  ( 0.0000000E+00)
 number of electron      36.0000012 magnetization 
 augmentation part       -1.0931503 magnetization 

 Broyden mixing:
  rms(total) = 0.19575E-14    rms(broyden)= 0.88543E-15
  rms(prec ) = 0.16368E-14
  weight for this iteration     100.00
  WARNING: grid for Broyden might be to small

 Free energy of the ion-electron system (eV)
  ---------------------------------------------------
  alpha Z        PSCENC =        39.62817553
  Ewald energy   TEWEN  =      8618.40232926
  -Hartree energ DENC   =    -10087.81528896
  -exchange      EXHF   =         0.00000000
  -V(xc)+E(xc)   XCENC  =       -73.18210662
  PAW double counting   =      2468.63869795    -2315.70282232
  entropy T*S    EENTRO =        -0.00000000
  eigenvalues    EBANDS =      -234.12050037
  atomic energy  EATOM  =      1542.30942798
  Solvation  Ediel_sol  =         0.00000000
  ---------------------------------------------------
  free energy    TOTEN  =       -41.84208755 eV

  energy without entropy =      -41.84208755  energy(sigma->0) =      -41.84208755


--------------------------------------------------------------------------------------------------------




----------------------------------------- Iteration    1(   2)  ---------------------------------------


    POTLOK:  cpu time    0.4039: real time    0.4050
    SETDIJ:  cpu time    0.0140: real time    0.0158
    EDDIAG:  cpu time    0.0000: real time    0.0000
       DOS:  cpu time    0.0010: real time    0.0003
    --------------------------------------------
      LOOP:  cpu time    0.4199: real time    0.4217

 eigenvalue-minimisations  :     0
 total energy-change (2. order) : 0.0000000E+00  ( 0.0000000E+00)
 number of electron      36.0000012 magnetization 
 augmentation part       -1.0931503 magnetization 

 Free energy of the ion-electron system (eV)
  ---------------------------------------------------
  alpha Z        PSCENC =        39.62817553
  Ewald energy   TEWEN  =      8618.40232926
  -Hartree energ DENC   =    -10087.81528896
  -exchange      EXHF   =         0.00000000
  -V(xc)+E(xc)   XCENC  =       -73.18210662
  PAW double counting   =      2468.63869795    -2315.70282232
  entropy T*S    EENTRO =        -0.00000000
  eigenvalues    EBANDS =      -234.12050037
  atomic energy  EATOM  =      1542.30942798
  Solvation  Ediel_sol  =         0.00000000
  ---------------------------------------------------
  free energy    TOTEN  =       -41.84208755 eV

  energy without entropy =      -41.84208755  energy(sigma->0) =      -41.84208755


--------------------------------------------------------------------------------------------------------




 average (electrostatic) potential at core
  the test charge radii are     1.2296  0.9698
  (the norm of the test charge is              1.0000)
       1 -45.8452       2 -45.8479       3 -93.2115       4 -93.2139       5 -93.2279
       6 -93.2264
 
 
 
 E-fermi :  -1.4771     XC(G=0):  -4.5957     alpha+bet : -4.2231


 k-point     1 :       0.0000    0.0000    0.0000
  band No.  band energies     occupation 
      1     -15.0890      2.00000
      2     -14.9773      2.00000
      3     -14.3078      2.00000
      4     -14.1595      2.00000
      5      -6.8610      2.00000
      6      -6.4444      2.00000
      7      -4.0364      2.00000
      8      -4.0364      2.00000
      9      -4.0279      2.00000
     10      -4.0279      2.00000
     11      -3.8983      2.00000
     12      -3.2422      2.00000
     13      -3.2422      2.00000
     14      -3.2207      2.00000
     15      -3.2207      2.00000
     16      -3.0738      2.00000
     17      -2.0924      2.00000
     18      -1.7451      2.00000
     19       0.1284      0.00000
     20       0.1284      0.00000
     21       0.1653      0.00000
     22       0.1653      0.00000
     23       0.1779      0.00000
     24       0.1779      0.00000
     25       0.2182      0.00000
     26       0.2182      0.00000
     27       2.9620      0.00000
     28       3.2028      0.00000
     29       3.8153      0.00000
     30       3.9334      0.00000
     31       4.3669      0.00000
     32       5.0230      0.00000
     33       5.8308      0.00000
     34       6.0146      0.00000
     35       6.1332      0.00000
     36       6.9648      0.00000
     37       7.5065      0.00000
     38       8.3108      0.00000
     39       8.4432      0.00000
     40       8.4432      0.00000

 k-point     2 :       0.1250    0.0000    0.0000
  band No.  band energies     occupation 
      1     -14.9329      2.00000
      2     -14.8242      2.00000
      3     -14.2158      2.00000
      4     -14.0766      2.00000
      5      -6.6524      2.00000
      6      -6.2393      2.00000
      7      -4.4638      2.00000
      8      -4.4446      2.00000
      9      -4.2807      2.00000
     10      -3.8816      2.00000
     11      -3.8763      2.00000
     12      -3.8619      2.00000
     13      -3.5011      2.00000
     14      -3.4757      2.00000
     15      -3.1179      2.00000
     16      -2.8210      2.00000
     17      -2.1855      2.00000
     18      -2.0103      2.00000
     19      -0.1666      0.00000
     20      -0.0693      0.00000
     21      -0.0329      0.00000
     22      -0.0088      0.00000
     23       0.0637      0.00000
     24       0.0854      0.00000
     25       0.3848      0.00000
     26       0.4230      0.00000
     27       3.5755      0.00000
     28       3.7111      0.00000
     29       4.2026      0.00000
     30       4.4051      0.00000
     31       4.6647      0.00000
     32       5.3117      0.00000
     33       6.1459      0.00000
     34       6.7870      0.00000
     35       6.8975      0.00000
     36       7.2161      0.00000
     37       7.4265      0.00000
     38       7.7311      0.00000
     39       7.9581      0.00000
     40       8.4695      0.00000

 k-point     3 :       0.2500    0.0000    0.0000
  band No.  band energies     occupation 
      1     -14.5212      2.00000
      2     -14.4243      2.00000
      3     -13.9753      2.00000
      4     -13.8631      2.00000
      5      -6.2213      2.00000
      6      -5.8687      2.00000
      7      -5.3184      2.00000
      8      -5.2192      2.00000
      9      -4.9507      2.00000
     10      -4.7336      2.00000
     11      -4.0030      2.00000
     12      -3.9703      2.00000
     13      -3.4834      2.00000
     14      -3.4520      2.00000
     15      -3.3761      2.00000
     16      -3.1319      2.00000
     17      -2.5679      2.00000
     18      -2.5244      2.00000
     19      -0.4153      0.00000
     20      -0.2912      0.00000
     21      -0.2200      0.00000
     22      -0.1606      0.00000
     23       0.1407      0.00000
     24       0.4316      0.00000
     25       0.7932      0.00000
     26       0.8736      0.00000
     27       4.4262      0.00000
     28       4.5136      0.00000
     29       5.0394      0.00000
     30       5.1877      0.00000
     31       5.4331      0.00000
     32       6.0082      0.00000
     33       6.3989      0.00000
     34       6.7050      0.00000
     35       6.9092      0.00000
     36       6.9901      0.00000
     37       7.1513      0.00000
     38       7.8021      0.00000
     39       7.8958      0.00000
     40       8.7713      0.00000

 k-point     4 :       0.3750    0.0000    0.0000
  band No.  band energies     occupation 
      1     -14.0397      2.00000
      2     -13.9695      2.00000
      3     -13.6997      2.00000
      4     -13.6298      2.00000
      5      -6.4648      2.00000
      6      -6.3287      2.00000
      7      -5.7469      2.00000
      8      -5.5945      2.00000
      9      -5.4396      2.00000
     10      -5.2075      2.00000
     11      -4.4015      2.00000
     12      -4.3651      2.00000
     13      -3.6805      2.00000
     14      -3.5065      2.00000
     15      -3.1100      2.00000
     16      -3.0469      2.00000
     17      -2.7011      2.00000
     18      -2.6124      2.00000
     19      -0.4107      0.00000
     20      -0.3708      0.00000
     21      -0.2165      0.00000
     22      -0.0400      0.00000
     23       0.6570      0.00000
     24       1.0022      0.00000
     25       1.0627      0.00000
     26       1.1822      0.00000
     27       4.2582      0.00000
     28       4.6242      0.00000
     29       5.0947      0.00000
     30       5.3745      0.00000
     31       5.9375      0.00000
     32       6.0257      0.00000
     33       6.3233      0.00000
     34       6.4972      0.00000
     35       6.7209      0.00000
     36       7.2784      0.00000
     37       7.4456      0.00000
     38       7.9854      0.00000
     39       8.3580      0.00000
     40       8.8095      0.00000

 k-point     5 :       0.5000    0.0000    0.0000
  band No.  band energies     occupation 
      1     -13.8061      2.00000
      2     -13.7623      2.00000
      3     -13.5689      2.00000
      4     -13.5310      2.00000
      5      -6.7823      2.00000
      6      -6.6583      2.00000
      7      -6.0080      2.00000
      8      -5.9132      2.00000
      9      -5.4654      2.00000
     10      -5.2201      2.00000
     11      -4.5474      2.00000
     12      -4.5098      2.00000
     13      -3.7559      2.00000
     14      -3.6424      2.00000
     15      -2.9727      2.00000
     16      -2.8908      2.00000
     17      -2.4976      2.00000
     18      -2.4504      2.00000
     19      -0.3960      0.00000
     20      -0.3790      0.00000
     21      -0.0391      0.00000
     22       0.0357      0.00000
     23       0.9008      0.00000
     24       1.1452      0.00000
     25       1.2582      0.00000
     26       1.2804      0.00000
     27       3.6168      0.00000
     28       3.8176      0.00000
     29       5.2711      0.00000
     30       5.4755      0.00000
     31       5.6736      0.00000
     32       5.9999      0.00000
     33       6.6161      0.00000
     34       7.0033      0.00000
     35       7.3987      0.00000
     36       7.8699      0.00000
     37       8.0329      0.00000
     38       8.3209      0.00000
     39       8.4177      0.00000
     40       8.5411      0.00000

 k-point     6 :       0.1250    0.0000    0.1250
  band No.  band energies     occupation 
      1     -14.6480      2.00000
      2     -14.5468      2.00000
      3     -14.0487      2.00000
      4     -13.9275      2.00000
      5      -6.3116      2.00000
      6      -5.9129      2.00000
      7      -5.0554      2.00000
      8      -5.0251      2.00000
      9      -4.6567      2.00000
     10      -4.3633      2.00000
     11      -4.1727      2.00000
     12      -4.0936      2.00000
     13      -3.6570      2.00000
     14      -3.6397      2.00000
     15      -3.0238      2.00000
     16      -2.8573      2.00000
     17      -2.4226      2.00000
     18      -2.4142      2.00000
     19      -0.4986      0.00000
     20      -0.2761      0.00000
     21      -0.1790      0.00000
     22      -0.1117      0.00000
     23      -0.1025      0.00000
     24       0.1494      0.00000
     25       0.7763      0.00000
     26       0.8668      0.00000
     27       4.2491      0.00000
     28       4.3161      0.00000
     29       4.8899      0.00000
     30       5.1353      0.00000
     31       5.2336      0.00000
     32       5.8282      0.00000
     33       6.6241      0.00000
     34       7.0769      0.00000
     35       7.2528      0.00000
     36       7.5357      0.00000
     37       7.5445      0.00000
     38       7.7566      0.00000
     39       7.9362      0.00000
     40       8.4190      0.00000

 k-point     7 :       0.2500    0.0000    0.1250
  band No.  band energies     occupation 
      1     -14.1942      2.00000
      2     -14.1126      2.00000
      3     -13.7848      2.00000
      4     -13.6984      2.00000
      5      -6.1460      2.00000
      6      -5.9569      2.00000
      7      -5.5167      2.00000
      8      -5.3583      2.00000
      9      -5.2751      2.00000
     10      -5.1915      2.00000
     11      -4.6303      2.00000
     12      -4.4533      2.00000
     13      -3.6170      2.00000
     14      -3.5763      2.00000
     15      -3.2991      2.00000
     16      -3.2281      2.00000
     17      -2.6211      2.00000
     18      -2.5941      2.00000
     19      -0.5455      0.00000
     20      -0.3294      0.00000
     21      -0.1967      0.00000
     22      -0.0969      0.00000
     23       0.2129      0.00000
     24       0.4955      0.00000
     25       1.0983      0.00000
     26       1.2881      0.00000
     27       4.9425      0.00000
     28       5.1692      0.00000
     29       5.2554      0.00000
     30       5.2880      0.00000
     31       6.0408      0.00000
     32       6.3989      0.00000
     33       6.5558      0.00000
     34       6.9845      0.00000
     35       7.0135      0.00000
     36       7.1923      0.00000
     37       7.5452      0.00000
     38       7.7555      0.00000
     39       8.2385      0.00000
     40       8.3365      0.00000

 k-point     8 :       0.3750    0.0000    0.1250
  band No.  band energies     occupation 
      1     -13.8174      2.00000
      2     -13.7694      2.00000
      3     -13.5694      2.00000
      4     -13.5261      2.00000
      5      -6.5286      2.00000
      6      -6.4107      2.00000
      7      -5.9474      2.00000
      8      -5.9128      2.00000
      9      -5.4230      2.00000
     10      -5.1948      2.00000
     11      -4.6414      2.00000
     12      -4.5344      2.00000
     13      -3.7475      2.00000
     14      -3.6674      2.00000
     15      -3.6120      2.00000
     16      -3.5420      2.00000
     17      -2.3839      2.00000
     18      -2.3338      2.00000
     19      -0.3927      0.00000
     20      -0.3294      0.00000
     21      -0.0281      0.00000
     22       0.0698      0.00000
     23       0.6924      0.00000
     24       0.9081      0.00000
     25       1.1368      0.00000
     26       1.3941      0.00000
     27       4.0428      0.00000
     28       4.2564      0.00000
     29       5.7564      0.00000
     30       5.8791      0.00000
     31       6.3944      0.00000
     32       6.5723      0.00000
     33       6.8082      0.00000
     34       6.9560      0.00000
     35       7.4567      0.00000
     36       7.5003      0.00000
     37       7.7054      0.00000
     38       7.9395      0.00000
     39       8.0627      0.00000
     40       8.3916      0.00000

 k-point     9 :       0.2500    0.0000    0.2500
  band No.  band energies     occupation 
      1     -13.8285      2.00000
      2     -13.7767      2.00000
      3     -13.5697      2.00000
      4     -13.5214      2.00000
      5      -6.1843      2.00000
      6      -6.0895      2.00000
      7      -5.9128      2.00000
      8      -5.8603      2.00000
      9      -5.2508      2.00000
     10      -5.2060      2.00000
     11      -4.7834      2.00000
     12      -4.5421      2.00000
     13      -4.3880      2.00000
     14      -4.2918      2.00000
     15      -3.6333      2.00000
     16      -3.4835      2.00000
     17      -2.3733      2.00000
     18      -2.3450      2.00000
     19      -0.4448      0.00000
     20      -0.3157      0.00000
     21       0.0069      0.00000
     22       0.1134      0.00000
     23       0.3657      0.00000
     24       0.6295      0.00000
     25       1.2657      0.00000
     26       1.5058      0.00000
     27       4.7068      0.00000
     28       4.7654      0.00000
     29       5.7540      0.00000
     30       6.0998      0.00000
     31       6.4779      0.00000
     32       6.6418      0.00000
     33       7.0525      0.00000
     34       7.4419      0.00000
     35       7.6037      0.00000
     36       7.7250      0.00000
     37       7.9699      0.00000
     38       8.3321      0.00000
     39       8.5558      0.00000
     40       8.6398      0.00000

 k-point    10 :       0.3750    0.0000    0.2500
  band No.  band energies     occupation 
      1     -13.6558      2.00000
      2     -13.6353      2.00000
      3     -13.4669      2.00000
      4     -13.4497      2.00000
      5      -6.2109      2.00000
      6      -6.1419      2.00000
      7      -6.0838      2.00000
      8      -6.0183      2.00000
      9      -5.3291      2.00000
     10      -5.1720      2.00000
     11      -4.8267      2.00000
     12      -4.6996      2.00000
     13      -4.5877      2.00000
     14      -4.4423      2.00000
     15      -3.9255      2.00000
     16      -3.7613      2.00000
     17      -2.1088      2.00000
     18      -2.0587      2.00000
     19      -0.6236      0.00000
     20      -0.6091      0.00000
     21       0.4014      0.00000
     22       0.4207      0.00000
     23       0.4657      0.00000
     24       0.7132      0.00000
     25       1.3632      0.00000
     26       1.5094      0.00000
     27       4.2939      0.00000
     28       4.5560      0.00000
     29       5.3559      0.00000
     30       5.7721      0.00000
     31       7.0352      0.00000
     32       7.1618      0.00000
     33       7.7701      0.00000
     34       7.8159      0.00000
     35       7.9929      0.00000
     36       8.3085      0.00000
     37       8.5913      0.00000
     38       8.7687      0.00000
     39       8.8399      0.00000
     40       9.1072      0.00000


--------------------------------------------------------------------------------------------------------


 soft charge-density along one line, spin component           1
         0         1         2         3         4         5         6         7         8         9
 total charge-density along one line
 
 pseudopotential strength for first ion, spin component:           1
 -9.744   0.000   0.000  -0.000   0.000  -9.931   0.000   0.000
  0.000  -9.744   0.000  -0.000  -0.000   0.000  -9.931   0.000
  0.000   0.000  -9.739   0.000   0.009   0.000   0.000  -9.927
 -0.000  -0.000   0.000  -9.744   0.000  -0.000  -0.000   0.000
  0.000  -0.000   0.009   0.000  -9.729   0.000  -0.000   0.009
 -9.931   0.000   0.000  -0.000   0.000 -10.108   0.000   0.000
  0.000  -9.931   0.000  -0.000  -0.000   0.000 -10.108   0.000
  0.000   0.000  -9.927   0.000   0.009   0.000   0.000 -10.103
 -0.000  -0.000   0.000  -9.932   0.000  -0.000  -0.000   0.000
  0.000  -0.000   0.009   0.000  -9.916   0.000  -0.000   0.009
  0.000  -0.000   0.003  -0.000   0.005   0.000  -0.000   0.003
  0.000  -0.000   0.005  -0.000   0.009   0.000  -0.000   0.006
  0.000  -0.000  -0.000   0.000  -0.000   0.000  -0.000  -0.000
  0.000   0.000  -0.001   0.000   0.001   0.000   0.000  -0.001
  0.000   0.000  -0.000   0.001   0.000   0.000   0.000  -0.000
  0.000  -0.000  -0.000   0.000  -0.000   0.000  -0.000  -0.000
  0.000   0.000  -0.002   0.000   0.001   0.000   0.000  -0.002
  0.000   0.000  -0.000   0.002   0.000   0.000   0.000  -0.000
 total augmentation occupancy for first ion, spin component:           1
  2.013   0.000   0.000  -0.003  -0.000  -2.697   0.000   0.000   0.001   0.000   0.000   0.000   0.000  -0.000  -0.000   0.000
 -0.000   2.013   0.002   0.000  -0.001  -0.000  -2.697  -0.001   0.000   0.001   0.000  -0.000   0.000  -0.000   0.000   0.000
  0.000   0.002   1.384  -0.000  -0.129   0.000  -0.001  -1.377   0.000   0.265   0.020  -0.004   0.000  -0.223   0.000  -0.000
 -0.003   0.000   0.000   1.458   0.000   0.001   0.000  -0.000  -1.530   0.000   0.000   0.000   0.000   0.000   0.258   0.000
 -0.000  -0.001  -0.129   0.000   1.235   0.000   0.001   0.265   0.000  -1.071   0.034  -0.007   0.000   0.129   0.000  -0.000
 -2.697   0.000   0.000   0.001   0.000   4.157   0.000   0.000  -0.000  -0.000   0.000   0.000   0.000  -0.000  -0.000  -0.000
 -0.000  -2.697  -0.001   0.000   0.001   0.000   4.157   0.000  -0.000  -0.000   0.000   0.000   0.000  -0.000   0.000  -0.000
  0.000  -0.001  -1.377  -0.000   0.265   0.000   0.000   2.286  -0.000  -0.357  -0.075   0.009  -0.000   0.271  -0.000  -0.000
  0.001   0.000  -0.000  -1.530   0.000  -0.000   0.000  -0.000   2.492   0.000  -0.000   0.000  -0.000   0.000  -0.313   0.000
  0.000   0.001   0.265   0.000  -1.071   0.000  -0.000  -0.357   0.000   1.874  -0.130   0.016  -0.000  -0.157   0.000  -0.000
  0.000   0.000   0.020   0.000   0.034   0.000   0.000  -0.075   0.000  -0.130   1.327  -0.074  -0.000   0.000  -0.000   0.000
  0.000  -0.000  -0.004   0.000  -0.007  -0.000   0.000   0.009   0.000   0.016  -0.074   0.006  -0.000   0.000   0.000   0.000
  0.000  -0.000   0.000  -0.000   0.000   0.000   0.000  -0.000   0.000  -0.000  -0.000  -0.000   0.293   0.000  -0.000  -0.036
 -0.000  -0.000  -0.223   0.000   0.129  -0.000  -0.000   0.271  -0.000  -0.157  -0.000  -0.000   0.000   0.242   0.000   0.000
 -0.000  -0.000  -0.000   0.258   0.000  -0.000   0.000   0.000  -0.313   0.000  -0.000   0.000   0.000   0.000   0.242   0.000
  0.000   0.000  -0.000   0.000  -0.000   0.000   0.000  -0.000   0.000  -0.000   0.000   0.000  -0.036   0.000  -0.000   0.005
 -0.000  -0.000   0.032   0.000  -0.019   0.000   0.000  -0.039   0.000   0.023  -0.000   0.000   0.000  -0.030   0.000   0.000
 -0.000   0.000  -0.000  -0.037   0.000   0.000   0.000   0.000   0.045   0.000   0.000  -0.000   0.000   0.000  -0.030  -0.000


------------------------ aborting loop because EDIFF is reached ----------------------------------------


