 written on 23Aug2017 at 13:51:34 
          22
          69
    2    2    1    1    1    2    1    1    1    1    1    1    1    2    1
    1    1    1    1    1    1    1    1    1    1    1    1    1    1    1
    2    1    1    1    1    1    1    1    2    1    1    1    1    1    1
    1    1    1    1    1    1    1    1    1    1    2    1    1    1    1
    1    1    1    2    1    1    1    2    2
   -5    0   -2    1    1    0.000113   -0.000071
   -5    0   -2    2    1    0.000000    0.000000
   -5    0   -2    3    1    0.000011   -0.000000
   -5    0   -2    4    1    0.000176    0.000001
   -5    0   -2    5    1   -0.000000    0.000000
   -5    0   -2    6    1   -0.000110   -0.000000
   -5    0   -2    7    1   -0.000000   -0.000000
   -5    0   -2    8    1   -0.000012    0.000000
   -5    0   -2    9    1    0.000059    0.000000
   -5    0   -2   10    1    0.000000    0.000000
   -5    0   -2   11    1   -0.000103    0.000001
   -5    0   -2   12    1    0.000000    0.000000
   -5    0   -2   13    1   -0.000023   -0.000000
   -5    0   -2   14    1    0.000036    0.000000
   -5    0   -2   15    1   -0.000000    0.000000
   -5    0   -2   16    1   -0.000033    0.000000
   -5    0   -2   17    1   -0.000012   -0.000000
   -5    0   -2   18    1    0.000000   -0.000000
   -5    0   -2   19    1    0.000111    0.000000
   -5    0   -2   20    1   -0.000130    0.000004
   -5    0   -2   21    1    0.000000    0.000000
   -5    0   -2   22    1   -0.000000    0.000003
   -5    0   -2    1    2    0.000000    0.000000
   -5    0   -2    2    2    0.000048   -0.000073
   -5    0   -2    3    2    0.000000    0.000000
   -5    0   -2    4    2    0.000000   -0.000000
   -5    0   -2    5    2   -0.000070   -0.000000
   -5    0   -2    6    2    0.000000    0.000000
   -5    0   -2    7    2   -0.000136   -0.000000
   -5    0   -2    8    2   -0.000000    0.000000
   -5    0   -2    9    2    0.000000    0.000000
   -5    0   -2   10    2    0.000013   -0.000000
   -5    0   -2   11    2    0.000000    0.000000
   -5    0   -2   12    2    0.000110   -0.000001
   -5    0   -2   13    2    0.000000    0.000000
   -5    0   -2   14    2    0.000000   -0.000000
   -5    0   -2   15    2    0.000037   -0.000000
   -5    0   -2   16    2   -0.000000   -0.000000
   -5    0   -2   17    2   -0.000000   -0.000000
   -5    0   -2   18    2   -0.000043   -0.000000
   -5    0   -2   19    2    0.000000   -0.000000
   -5    0   -2   20    2    0.000000    0.000000
   -5    0   -2   21    2    0.000140   -0.000004
   -5    0   -2   22    2   -0.000000   -0.000000
   -5    0   -2    1    3    0.000013   -0.000000
   -5    0   -2    2    3    0.000000   -0.000000
   -5    0   -2    3    3    0.000106   -0.000069
   -5    0   -2    4    3    0.000002   -0.000000
   -5    0   -2    5    3   -0.000000    0.000000
   -5    0   -2    6    3   -0.000012   -0.000000
   -5    0   -2    7    3   -0.000000   -0.000000
   -5    0   -2    8    3    0.000013   -0.000000
   -5    0   -2    9    3    0.000005    0.000000
   -5    0   -2   10    3   -0.000000    0.000000
   -5    0   -2   11    3    0.000044   -0.000001
   -5    0   -2   12    3    0.000000   -0.000000
   -5    0   -2   13    3   -0.000000    0.000000
   -5    0   -2   14    3    0.000010   -0.000000
   -5    0   -2   15    3    0.000000   -0.000000
   -5    0   -2   16    3    0.000030    0.000000
   -5    0   -2   17    3   -0.000000   -0.000000
   -5    0   -2   18    3    0.000000   -0.000000
   -5    0   -2   19    3   -0.000032   -0.000000
   -5    0   -2   20    3   -0.000040    0.000005
   -5    0   -2   21    3   -0.000000    0.000000
   -5    0   -2   22    3   -0.000001    0.000000
   -5    0   -2    1    4    0.000074    0.000001
   -5    0   -2    2    4    0.000000   -0.000000
   -5    0   -2    3    4   -0.000038    0.000000
   -5    0   -2    4    4   -0.000180   -0.000069
   -5    0   -2    5    4   -0.000000    0.000000
   -5    0   -2    6    4    0.000059   -0.000000
   -5    0   -2    7    4   -0.000000   -0.000000
   -5    0   -2    8    4    0.000005   -0.000000
   -5    0   -2    9    4   -0.000002   -0.000000
   -5    0   -2   10    4    0.000000   -0.000000
   -5    0   -2   11    4    0.000043   -0.000000
   -5    0   -2   12    4   -0.000000   -0.000000
   -5    0   -2   13    4   -0.000070   -0.000001
   -5    0   -2   14    4   -0.000004    0.000000
   -5    0   -2   15    4   -0.000000    0.000000
   -5    0   -2   16    4    0.000002   -0.000000
   -5    0   -2   17    4    0.000016   -0.000000
   -5    0   -2   18    4   -0.000000    0.000000
   -5    0   -2   19    4   -0.000113    0.000001
   -5    0   -2   20    4    0.000057   -0.000002
   -5    0   -2   21    4   -0.000000   -0.000000
   -5    0   -2   22    4    0.000017    0.000007
   -5    0   -2    1    5   -0.000000   -0.000000
   -5    0   -2    2    5   -0.000007   -0.000000
   -5    0   -2    3    5   -0.000000    0.000000
   -5    0   -2    4    5    0.000000    0.000000
   -5    0   -2    5    5    0.000239   -0.000071
   -5    0   -2    6    5   -0.000000   -0.000000
   -5    0   -2    7    5    0.000013    0.000000
   -5    0   -2    8    5    0.000000    0.000000
   -5    0   -2    9    5   -0.000000    0.000000
   -5    0   -2   10    5    0.000012   -0.000000
   -5    0   -2   11    5    0.000000    0.000000
   -5    0   -2   12    5    0.000044   -0.000001
   -5    0   -2   13    5    0.000000    0.000000
   -5    0   -2   14    5    0.000000    0.000000
   -5    0   -2   15    5   -0.000003    0.000000
   -5    0   -2   16    5    0.000000   -0.000000
   -5    0   -2   17    5   -0.000000    0.000000
   -5    0   -2   18    5   -0.000026    0.000000
   -5    0   -2   19    5   -0.000000    0.000000
   -5    0   -2   20    5   -0.000000   -0.000000
   -5    0   -2   21    5   -0.000040    0.000005
   -5    0   -2   22    5    0.000000    0.000000
   -5    0   -2    1    6   -0.000066    0.000000
   -5    0   -2    2    6    0.000000    0.000000
   -5    0   -2    3    6   -0.000024    0.000000
   -5    0   -2    4    6   -0.000035   -0.000000
   -5    0   -2    5    6   -0.000000    0.000000
   -5    0   -2    6    6   -0.000145    0.000071
   -5    0   -2    7    6    0.000000   -0.000000
   -5    0   -2    8    6    0.000012    0.000000
   -5    0   -2    9    6    0.000079   -0.000001
   -5    0   -2   10    6    0.000000    0.000000
   -5    0   -2   11    6   -0.000019   -0.000000
   -5    0   -2   12    6   -0.000000    0.000000
   -5    0   -2   13    6    0.000031   -0.000002
   -5    0   -2   14    6   -0.000017   -0.000000
   -5    0   -2   15    6    0.000000    0.000000
   -5    0   -2   16    6   -0.000256   -0.000001
   -5    0   -2   17    6   -0.000053    0.000001
   -5    0   -2   18    6    0.000000    0.000000
   -5    0   -2   19    6    0.000244    0.000002
   -5    0   -2   20    6   -0.000045   -0.000000
   -5    0   -2   21    6   -0.000000    0.000000
   -5    0   -2   22    6    0.000030    0.000000
   -5    0   -2    1    7    0.000000   -0.000000
   -5    0   -2    2    7   -0.000014    0.000000
   -5    0   -2    3    7   -0.000000    0.000000
   -5    0   -2    4    7   -0.000000   -0.000000
   -5    0   -2    5    7    0.000068    0.000000
   -5    0   -2    6    7    0.000000   -0.000000
   -5    0   -2    7    7   -0.000214    0.000073
   -5    0   -2    8    7    0.000000    0.000000
   -5    0   -2    9    7   -0.000000    0.000000
   -5    0   -2   10    7   -0.000007    0.000000
   -5    0   -2   11    7    0.000000    0.000000
   -5    0   -2   12    7   -0.000019   -0.000000
   -5    0   -2   13    7   -0.000000   -0.000000
   -5    0   -2   14    7    0.000000    0.000000
   -5    0   -2   15    7   -0.000100    0.000000
   -5    0   -2   16    7   -0.000000    0.000000
   -5    0   -2   17    7    0.000000    0.000000
   -5    0   -2   18    7   -0.000114    0.000000
   -5    0   -2   19    7    0.000000   -0.000000
   -5    0   -2   20    7   -0.000000    0.000000
   -5    0   -2   21    7   -0.000001   -0.000000
   -5    0   -2   22    7    0.000000   -0.000000
   -5    0   -2    1    8   -0.000024   -0.000000
   -5    0   -2    2    8   -0.000000   -0.000000
   -5    0   -2    3    8   -0.000055   -0.000000
   -5    0   -2    4    8   -0.000090   -0.000000
   -5    0   -2    5    8    0.000000    0.000000
   -5    0   -2    6    8    0.000011    0.000000
   -5    0   -2    7    8   -0.000000   -0.000000
   -5    0   -2    8    8   -0.000145    0.000069
   -5    0   -2    9    8   -0.000036   -0.000000
   -5    0   -2   10    8    0.000000   -0.000000
   -5    0   -2   11    8   -0.000002    0.000000
   -5    0   -2   12    8    0.000000   -0.000000
   -5    0   -2   13    8   -0.000056    0.000002
   -5    0   -2   14    8   -0.000012   -0.000001
   -5    0   -2   15    8   -0.000000    0.000000
   -5    0   -2   16    8    0.000032    0.000000
   -5    0   -2   17    8    0.000041    0.000003
   -5    0   -2   18    8    0.000000   -0.000000
   -5    0   -2   19    8   -0.000107   -0.000001
   -5    0   -2   20    8   -0.000023   -0.000000
   -5    0   -2   21    8   -0.000000   -0.000000
   -5    0   -2   22    8   -0.000003   -0.000000
   -5    0   -2    1    9   -0.000035    0.000000
   -5    0   -2    2    9   -0.000000    0.000000
   -5    0   -2    3    9   -0.000090    0.000000
   -5    0   -2    4    9    0.000211    0.000000
   -5    0   -2    5    9    0.000000   -0.000000
   -5    0   -2    6    9    0.000179   -0.000001
   -5    0   -2    7    9    0.000000    0.000000
   -5    0   -2    8    9    0.000002    0.000000
   -5    0   -2    9    9   -0.000431    0.000069
   -5    0   -2   10    9    0.000000    0.000000
   -5    0   -2   11    9   -0.000037   -0.000000
   -5    0   -2   12    9    0.000000    0.000000
   -5    0   -2   13    9   -0.000015   -0.000001
   -5    0   -2   14    9    0.000036   -0.000000
   -5    0   -2   15    9    0.000000   -0.000000
   -5    0   -2   16    9    0.000596    0.000000
   -5    0   -2   17    9    0.000024   -0.000000
   -5    0   -2   18    9    0.000000   -0.000000
   -5    0   -2   19    9   -0.000530    0.000002
   -5    0   -2   20    9   -0.000014    0.000000
   -5    0   -2   21    9   -0.000000    0.000000
   -5    0   -2   22    9   -0.000088    0.000001
   -5    0   -2    1   10   -0.000000   -0.000000
   -5    0   -2    2   10    0.000069   -0.000000
   -5    0   -2    3   10    0.000000   -0.000000
   -5    0   -2    4   10    0.000000    0.000000
   -5    0   -2    5   10   -0.000115    0.000000
   -5    0   -2    6   10    0.000000   -0.000000
   -5    0   -2    7   10   -0.000070    0.000000
   -5    0   -2    8   10    0.000000   -0.000000
   -5    0   -2    9   10    0.000000   -0.000000
   -5    0   -2   10   10   -0.000015    0.000071
   -5    0   -2   11   10   -0.000000   -0.000000
   -5    0   -2   12   10    0.000033    0.000000
   -5    0   -2   13   10    0.000000   -0.000000
   -5    0   -2   14   10    0.000000    0.000000
   -5    0   -2   15   10   -0.000196   -0.000000
   -5    0   -2   16   10   -0.000000    0.000000
   -5    0   -2   17   10   -0.000000   -0.000000
   -5    0   -2   18   10    0.000291   -0.000001
   -5    0   -2   19   10   -0.000000    0.000000
   -5    0   -2   20   10    0.000000    0.000000
   -5    0   -2   21   10    0.000003    0.000000
   -5    0   -2   22   10   -0.000000    0.000000
   -5    0   -2    1   11    0.000017    0.000000
   -5    0   -2    2   11    0.000000    0.000000
   -5    0   -2    3   11    0.000014   -0.000001
   -5    0   -2    4   11   -0.000037    0.000000
   -5    0   -2    5   11    0.000000    0.000000
   -5    0   -2    6   11   -0.000036    0.000000
   -5    0   -2    7   11    0.000000   -0.000000
   -5    0   -2    8   11   -0.000010    0.000000
   -5    0   -2    9   11    0.000004    0.000000
   -5    0   -2   10   11   -0.000000    0.000000
   -5    0   -2   11   11    0.000108   -0.000064
   -5    0   -2   12   11    0.000000   -0.000000
   -5    0   -2   13   11   -0.000074   -0.000000
   -5    0   -2   14   11   -0.000003    0.000000
   -5    0   -2   15   11   -0.000000   -0.000000
   -5    0   -2   16   11   -0.000050   -0.000000
   -5    0   -2   17   11   -0.000013    0.000000
   -5    0   -2   18   11    0.000000    0.000000
   -5    0   -2   19   11    0.000036   -0.000000
   -5    0   -2   20   11    0.000097    0.000001
   -5    0   -2   21   11   -0.000000    0.000000
   -5    0   -2   22   11    0.000009   -0.000002
   -5    0   -2    1   12    0.000000    0.000000
   -5    0   -2    2   12    0.000100    0.000000
   -5    0   -2    3   12    0.000000   -0.000000
   -5    0   -2    4   12   -0.000000   -0.000000
   -5    0   -2    5   12    0.000195   -0.000000
   -5    0   -2    6   12    0.000000    0.000000
   -5    0   -2    7   12   -0.000037   -0.000000
   -5    0   -2    8   12    0.000000   -0.000000
   -5    0   -2    9   12   -0.000000    0.000000
   -5    0   -2   10   12    0.000002    0.000000
   -5    0   -2   11   12    0.000000    0.000000
   -5    0   -2   12   12    0.000597   -0.000064
   -5    0   -2   13   12    0.000000    0.000000
   -5    0   -2   14   12    0.000000    0.000000
   -5    0   -2   15   12    0.000030   -0.000000
   -5    0   -2   16   12   -0.000000    0.000000
   -5    0   -2   17   12   -0.000000    0.000000
   -5    0   -2   18   12    0.000028    0.000000
   -5    0   -2   19   12   -0.000000   -0.000000
   -5    0   -2   20   12    0.000000    0.000000
   -5    0   -2   21   12   -0.000041    0.000001
   -5    0   -2   22   12    0.000000    0.000000
   -5    0   -2    1   13    0.000257   -0.000001
   -5    0   -2    2   13    0.000000    0.000000
   -5    0   -2    3   13   -0.000033   -0.000000
   -5    0   -2    4   13   -0.000596   -0.000000
   -5    0   -2    5   13    0.000000    0.000000
   -5    0   -2    6   13    0.000033    0.000000
   -5    0   -2    7   13   -0.000000   -0.000000
   -5    0   -2    8   13   -0.000031    0.000000
   -5    0   -2    9   13   -0.000002   -0.000000
   -5    0   -2   10   13    0.000000   -0.000000
   -5    0   -2   11   13    0.000136   -0.000000
   -5    0   -2   12   13    0.000000   -0.000000
   -5    0   -2   13   13   -0.000037   -0.000063
   -5    0   -2   14   13   -0.000050    0.000000
   -5    0   -2   15   13   -0.000000   -0.000000
   -5    0   -2   16   13   -0.000046   -0.000000
   -5    0   -2   17   13    0.000045   -0.000000
   -5    0   -2   18   13    0.000000   -0.000000
   -5    0   -2   19   13   -0.000097   -0.000000
   -5    0   -2   20   13    0.000155    0.000001
   -5    0   -2   21   13   -0.000000   -0.000000
   -5    0   -2   22   13    0.000116   -0.000000
   -5    0   -2    1   14    0.000019   -0.000000
   -5    0   -2    2   14   -0.000000    0.000000
   -5    0   -2    3   14    0.000002    0.000000
   -5    0   -2    4   14    0.000037   -0.000000
   -5    0   -2    5   14    0.000000   -0.000000
   -5    0   -2    6   14    0.000100    0.000001
   -5    0   -2    7   14    0.000000    0.000000
   -5    0   -2    8   14   -0.000041   -0.000001
   -5    0   -2    9   14   -0.000042   -0.000000
   -5    0   -2   10   14   -0.000000   -0.000000
   -5    0   -2   11   14   -0.000016   -0.000000
   -5    0   -2   12   14    0.000000   -0.000000
   -5    0   -2   13   14    0.000003    0.000000
   -5    0   -2   14   14   -0.000124    0.000064
   -5    0   -2   15   14   -0.000000   -0.000000
   -5    0   -2   16   14    0.000135    0.000001
   -5    0   -2   17   14    0.000104   -0.000001
   -5    0   -2   18   14   -0.000000   -0.000000
   -5    0   -2   19   14   -0.000136    0.000001
   -5    0   -2   20   14    0.000021   -0.000000
   -5    0   -2   21   14   -0.000000   -0.000000
   -5    0   -2   22   14    0.000003    0.000000
   -5    0   -2    1   15   -0.000000    0.000000
   -5    0   -2    2   15    0.000019   -0.000000
   -5    0   -2    3   15    0.000000   -0.000000
   -5    0   -2    4   15   -0.000000    0.000000
   -5    0   -2    5   15   -0.000033    0.000000
   -5    0   -2    6   15    0.000000    0.000000
   -5    0   -2    7   15   -0.000107   -0.000001
   -5    0   -2    8   15   -0.000000   -0.000000
   -5    0   -2    9   15    0.000000    0.000000
   -5    0   -2   10   15   -0.000041   -0.000001
   -5    0   -2   11   15   -0.000000    0.000000
   -5    0   -2   12   15   -0.000016   -0.000000
   -5    0   -2   13   15   -0.000000    0.000000
   -5    0   -2   14   15    0.000000    0.000000
   -5    0   -2   15   15    0.000365    0.000064
   -5    0   -2   16   15   -0.000000    0.000000
   -5    0   -2   17   15    0.000000   -0.000000
   -5    0   -2   18   15   -0.000055   -0.000000
   -5    0   -2   19   15   -0.000000   -0.000000
   -5    0   -2   20   15    0.000000    0.000000
   -5    0   -2   21   15    0.000021   -0.000000
   -5    0   -2   22   15   -0.000000    0.000000
   -5    0   -2    1   16   -0.000029   -0.000002
   -5    0   -2    2   16   -0.000000   -0.000000
   -5    0   -2    3   16    0.000053    0.000002
   -5    0   -2    4   16    0.000017   -0.000001
   -5    0   -2    5   16    0.000000   -0.000000
   -5    0   -2    6   16    0.000025   -0.000000
   -5    0   -2    7   16   -0.000000    0.000000
   -5    0   -2    8   16    0.000000    0.000000
   -5    0   -2    9   16    0.000074   -0.000001
   -5    0   -2   10   16   -0.000000   -0.000000
   -5    0   -2   11   16    0.000003   -0.000000
   -5    0   -2   12   16    0.000000   -0.000000
   -5    0   -2   13   16    0.000071    0.000000
   -5    0   -2   14   16   -0.000073    0.000000
   -5    0   -2   15   16   -0.000000   -0.000000
   -5    0   -2   16   16   -0.000266    0.000063
   -5    0   -2   17   16   -0.000031   -0.000002
   -5    0   -2   18   16    0.000000    0.000000
   -5    0   -2   19   16    0.000178    0.000000
   -5    0   -2   20   16   -0.000002   -0.000000
   -5    0   -2   21   16    0.000000    0.000000
   -5    0   -2   22   16    0.000037    0.000002
   -5    0   -2    1   17    0.000045    0.000000
   -5    0   -2    2   17   -0.000000    0.000000
   -5    0   -2    3   17    0.000023   -0.000000
   -5    0   -2    4   17    0.000013    0.000000
   -5    0   -2    5   17    0.000000    0.000000
   -5    0   -2    6   17    0.000111    0.000004
   -5    0   -2    7   17    0.000000    0.000000
   -5    0   -2    8   17    0.000024    0.000005
   -5    0   -2    9   17   -0.000047   -0.000002
   -5    0   -2   10   17    0.000000    0.000000
   -5    0   -2   11   17    0.000021    0.000000
   -5    0   -2   12   17   -0.000000   -0.000000
   -5    0   -2   13   17   -0.000002    0.000000
   -5    0   -2   14   17    0.000094   -0.000001
   -5    0   -2   15   17   -0.000000   -0.000000
   -5    0   -2   16   17    0.000155   -0.000001
   -5    0   -2   17   17   -0.000084    0.000040
   -5    0   -2   18   17   -0.000000   -0.000000
   -5    0   -2   19   17   -0.000128    0.000001
   -5    0   -2   20   17    0.000047    0.000000
   -5    0   -2   21   17    0.000000    0.000000
   -5    0   -2   22   17    0.000004    0.000000
   -5    0   -2    1   18   -0.000000    0.000000
   -5    0   -2    2   18    0.000002   -0.000000
   -5    0   -2    3   18   -0.000000    0.000000
   -5    0   -2    4   18   -0.000000    0.000000
   -5    0   -2    5   18   -0.000003    0.000000
   -5    0   -2    6   18    0.000000    0.000000
   -5    0   -2    7   18   -0.000118   -0.000004
   -5    0   -2    8   18    0.000000    0.000000
   -5    0   -2    9   18    0.000000    0.000000
   -5    0   -2   10   18    0.000024    0.000004
   -5    0   -2   11   18    0.000000    0.000000
   -5    0   -2   12   18    0.000021    0.000000
   -5    0   -2   13   18   -0.000000    0.000000
   -5    0   -2   14   18    0.000000   -0.000000
   -5    0   -2   15   18   -0.000042   -0.000001
   -5    0   -2   16   18    0.000000    0.000000
   -5    0   -2   17   18    0.000000    0.000000
   -5    0   -2   18   18    0.000393    0.000038
   -5    0   -2   19   18    0.000000   -0.000000
   -5    0   -2   20   18   -0.000000   -0.000000
   -5    0   -2   21   18    0.000047    0.000000
   -5    0   -2   22   18    0.000000   -0.000000
   -5    0   -2    1   19   -0.000031    0.000000
   -5    0   -2    2   19   -0.000000   -0.000000
   -5    0   -2    3   19    0.000003   -0.000000
   -5    0   -2    4   19    0.000087    0.000001
   -5    0   -2    5   19   -0.000000    0.000000
   -5    0   -2    6   19   -0.000012    0.000003
   -5    0   -2    7   19    0.000000   -0.000000
   -5    0   -2    8   19    0.000000    0.000000
   -5    0   -2    9   19   -0.000045    0.000007
   -5    0   -2   10   19   -0.000000   -0.000000
   -5    0   -2   11   19    0.000003   -0.000000
   -5    0   -2   12   19    0.000000   -0.000000
   -5    0   -2   13   19    0.000039   -0.000002
   -5    0   -2   14   19    0.000005    0.000002
   -5    0   -2   15   19   -0.000000   -0.000000
   -5    0   -2   16   19    0.000118    0.000000
   -5    0   -2   17   19    0.000075    0.000000
   -5    0   -2   18   19    0.000000    0.000000
   -5    0   -2   19   19   -0.000137    0.000033
   -5    0   -2   20   19    0.000004    0.000000
   -5    0   -2   21   19    0.000000    0.000000
   -5    0   -2   22   19   -0.000054   -0.000000
   -5    0   -2    1   20    0.000053    0.000002
   -5    0   -2    2   20    0.000000    0.000000
   -5    0   -2    3   20   -0.000052    0.000003
   -5    0   -2    4   20   -0.000030    0.000000
   -5    0   -2    5   20   -0.000000   -0.000000
   -5    0   -2    6   20    0.000012   -0.000000
   -5    0   -2    7   20   -0.000000   -0.000000
   -5    0   -2    8   20    0.000000   -0.000000
   -5    0   -2    9   20   -0.000016   -0.000000
   -5    0   -2   10   20   -0.000000    0.000000
   -5    0   -2   11   20    0.000106    0.000001
   -5    0   -2   12   20   -0.000000    0.000000
   -5    0   -2   13   20   -0.000036    0.000002
   -5    0   -2   14   20   -0.000013   -0.000000
   -5    0   -2   15   20    0.000000   -0.000000
   -5    0   -2   16   20    0.000044    0.000000
   -5    0   -2   17   20    0.000028    0.000000
   -5    0   -2   18   20   -0.000000   -0.000000
   -5    0   -2   19   20    0.000004    0.000000
   -5    0   -2   20   20    0.000060   -0.000040
   -5    0   -2   21   20    0.000000   -0.000000
   -5    0   -2   22   20    0.000076   -0.000000
   -5    0   -2    1   21    0.000000    0.000000
   -5    0   -2    2   21    0.000112    0.000001
   -5    0   -2    3   21   -0.000000   -0.000000
   -5    0   -2    4   21   -0.000000   -0.000000
   -5    0   -2    5   21   -0.000284   -0.000001
   -5    0   -2    6   21   -0.000000   -0.000000
   -5    0   -2    7   21    0.000043   -0.000000
   -5    0   -2    8   21    0.000000   -0.000000
   -5    0   -2    9   21   -0.000000    0.000000
   -5    0   -2   10   21    0.000025    0.000000
   -5    0   -2   11   21    0.000000    0.000000
   -5    0   -2   12   21   -0.000052    0.000000
   -5    0   -2   13   21   -0.000000   -0.000000
   -5    0   -2   14   21   -0.000000   -0.000000
   -5    0   -2   15   21    0.000028   -0.000000
   -5    0   -2   16   21    0.000000    0.000000
   -5    0   -2   17   21    0.000000    0.000000
   -5    0   -2   18   21    0.000394   -0.000000
   -5    0   -2   19   21    0.000000    0.000000
   -5    0   -2   20   21    0.000000    0.000000
   -5    0   -2   21   21    0.000536   -0.000038
   -5    0   -2   22   21   -0.000000   -0.000000
   -5    0   -2    1   22   -0.000250    0.000002
   -5    0   -2    2   22   -0.000000   -0.000000
   -5    0   -2    3   22    0.000112   -0.000001
   -5    0   -2    4   22    0.000529    0.000002
   -5    0   -2    5   22    0.000000    0.000000
   -5    0   -2    6   22   -0.000110    0.000000
   -5    0   -2    7   22   -0.000000   -0.000000
   -5    0   -2    8   22    0.000033   -0.000000
   -5    0   -2    9   22    0.000111    0.000001
   -5    0   -2   10   22   -0.000000    0.000000
   -5    0   -2   11   22   -0.000137   -0.000001
   -5    0   -2   12   22    0.000000    0.000000
   -5    0   -2   13   22    0.000175   -0.000000
   -5    0   -2   14   22    0.000036    0.000000
   -5    0   -2   15   22   -0.000000    0.000000
   -5    0   -2   16   22   -0.000098    0.000000
   -5    0   -2   17   22    0.000004    0.000000
   -5    0   -2   18   22    0.000000   -0.000000
   -5    0   -2   19   22    0.000158    0.000000
   -5    0   -2   20   22   -0.000125   -0.000001
   -5    0   -2   21   22   -0.000000    0.000000
   -5    0   -2   22   22   -0.000018   -0.000033
   -4    0   -4    1    1    0.000245    0.000000
   -4    0   -4    2    1    0.000289    0.000000
   -4    0   -4    3    1    0.000041   -0.000000
   -4    0   -4    4    1    0.000189   -0.000000
   -4    0   -4    5    1   -0.000025   -0.000000
   -4    0   -4    6    1    0.000159    0.000000
   -4    0   -4    7    1    0.000086    0.000000
   -4    0   -4    8    1   -0.000014   -0.000000
   -4    0   -4    9    1   -0.000097   -0.000000
   -4    0   -4   10    1    0.000022   -0.000000
   -4    0   -4   11    1    0.000590    0.000000
   -4    0   -4   12    1    0.000528    0.000000
   -4    0   -4   13    1    0.000992   -0.000000
   -4    0   -4   14    1    0.000010   -0.000000
   -4    0   -4   15    1   -0.000002    0.000000
   -4    0   -4   16    1    0.000029   -0.000000
   -4    0   -4   17    1    0.000088   -0.000000
   -4    0   -4   18    1   -0.000044    0.000000
   -4    0   -4   19    1   -0.000164    0.000000
   -4    0   -4   20    1    0.000601    0.000000
   -4    0   -4   21    1    0.000562    0.000001
   -4    0   -4   22    1   -0.000881    0.000001
   -4    0   -4    1    2    0.000289   -0.000000
   -4    0   -4    2    2    0.000354   -0.000000
   -4    0   -4    3    2    0.000023   -0.000000
   -4    0   -4    4    2    0.000128   -0.000000
   -4    0   -4    5    2   -0.000067    0.000000
   -4    0   -4    6    2    0.000086   -0.000000
   -4    0   -4    7    2   -0.000137    0.000000
   -4    0   -4    8    2    0.000006   -0.000000
   -4    0   -4    9    2   -0.000098    0.000000
   -4    0   -4   10    2    0.000086   -0.000000
   -4    0   -4   11    2    0.000018    0.000001
   -4    0   -4   12    2    0.000117   -0.000000
   -4    0   -4   13    2    0.000440    0.000000
   -4    0   -4   14    2   -0.000002    0.000000
   -4    0   -4   15    2   -0.000001    0.000000
   -4    0   -4   16    2    0.000066   -0.000000
   -4    0   -4   17    2    0.000018    0.000000
   -4    0   -4   18    2   -0.000079   -0.000000
   -4    0   -4   19    2   -0.000245    0.000000
   -4    0   -4   20    2    0.000051    0.000001
   -4    0   -4   21    2    0.000119   -0.000001
   -4    0   -4   22    2   -0.000388   -0.000000
   -4    0   -4    1    3    0.000041    0.000000
   -4    0   -4    2    3    0.000023    0.000000
   -4    0   -4    3    3    0.000589   -0.000000
   -4    0   -4    4    3   -0.000007   -0.000000
   -4    0   -4    5    3    0.000614   -0.000000
   -4    0   -4    6    3   -0.000015    0.000000
   -4    0   -4    7    3    0.000006    0.000000
   -4    0   -4    8    3    0.000032   -0.000000
   -4    0   -4    9    3   -0.000024    0.000000
   -4    0   -4   10    3    0.000087   -0.000000
   -4    0   -4   11    3   -0.000612   -0.000000
   -4    0   -4   12    3   -0.000268   -0.000000
   -4    0   -4   13    3    0.000016   -0.000000
   -4    0   -4   14    3    0.000073   -0.000000
   -4    0   -4   15    3    0.000047   -0.000000
   -4    0   -4   16    3    0.000021   -0.000000
   -4    0   -4   17    3   -0.000053   -0.000000
   -4    0   -4   18    3   -0.000025   -0.000000
   -4    0   -4   19    3    0.000016    0.000000
   -4    0   -4   20    3    0.000546    0.000000
   -4    0   -4   21    3    0.000230    0.000000
   -4    0   -4   22    3    0.000119    0.000000
   -4    0   -4    1    4    0.000189    0.000000
   -4    0   -4    2    4    0.000128    0.000000
   -4    0   -4    3    4   -0.000007    0.000000
   -4    0   -4    4    4    0.000221   -0.000000
   -4    0   -4    5    4   -0.000002   -0.000000
   -4    0   -4    6    4   -0.000097    0.000000
   -4    0   -4    7    4   -0.000098   -0.000000
   -4    0   -4    8    4   -0.000024   -0.000000
   -4    0   -4    9    4    0.000084   -0.000000
   -4    0   -4   10    4    0.000047    0.000000
   -4    0   -4   11    4    0.000056   -0.000000
   -4    0   -4   12    4    0.000136    0.000000
   -4    0   -4   13    4    0.000177    0.000000
   -4    0   -4   14    4    0.000006   -0.000000
   -4    0   -4   15    4   -0.000016    0.000000
   -4    0   -4   16    4   -0.000028    0.000000
   -4    0   -4   17    4    0.000019   -0.000000
   -4    0   -4   18    4   -0.000074    0.000000
   -4    0   -4   19    4   -0.000026    0.000000
   -4    0   -4   20    4    0.000086   -0.000000
   -4    0   -4   21    4    0.000108    0.000000
   -4    0   -4   22    4   -0.000234    0.000001
   -4    0   -4    1    5   -0.000025    0.000000
   -4    0   -4    2    5   -0.000067   -0.000000
   -4    0   -4    3    5    0.000614    0.000000
   -4    0   -4    4    5   -0.000002    0.000000
   -4    0   -4    5    5   -0.000125   -0.000000
   -4    0   -4    6    5    0.000022    0.000000
   -4    0   -4    7    5    0.000086    0.000000
   -4    0   -4    8    5    0.000088    0.000000
   -4    0   -4    9    5    0.000046   -0.000000
   -4    0   -4   10    5    0.000127    0.000000
   -4    0   -4   11    5   -0.000968    0.000000
   -4    0   -4   12    5   -0.000671   -0.000000
   -4    0   -4   13    5    0.000205   -0.000000
   -4    0   -4   14    5    0.000046   -0.000000
   -4    0   -4   15    5    0.000018    0.000000
   -4    0   -4   16    5   -0.000043    0.000000
   -4    0   -4   17    5   -0.000025   -0.000000
   -4    0   -4   18    5   -0.000023    0.000000
   -4    0   -4   19    5   -0.000029   -0.000000
   -4    0   -4   20    5    0.000940   -0.000001
   -4    0   -4   21    5    0.000647    0.000001
   -4    0   -4   22    5    0.000172   -0.000000
   -4    0   -4    1    6    0.000159   -0.000000
   -4    0   -4    2    6    0.000086    0.000000
   -4    0   -4    3    6   -0.000015   -0.000000
   -4    0   -4    4    6   -0.000097   -0.000000
   -4    0   -4    5    6    0.000022   -0.000000
   -4    0   -4    6    6   -0.000013   -0.000000
   -4    0   -4    7    6    0.000289    0.000000
   -4    0   -4    8    6    0.000040   -0.000000
   -4    0   -4    9    6    0.000192   -0.000000
   -4    0   -4   10    6   -0.000025   -0.000000
   -4    0   -4   11    6   -0.000010    0.000000
   -4    0   -4   12    6    0.000002   -0.000000
   -4    0   -4   13    6   -0.000029    0.000000
   -4    0   -4   14    6   -0.000591   -0.000000
   -4    0   -4   15    6   -0.000528    0.000000
   -4    0   -4   16    6   -0.000991    0.000000
   -4    0   -4   17    6   -0.000607   -0.000000
   -4    0   -4   18    6   -0.000562   -0.000000
   -4    0   -4   19    6    0.000876   -0.000001
   -4    0   -4   20    6   -0.000088    0.000000
   -4    0   -4   21    6    0.000044   -0.000000
   -4    0   -4   22    6    0.000164   -0.000000
   -4    0   -4    1    7    0.000086   -0.000000
   -4    0   -4    2    7   -0.000137   -0.000000
   -4    0   -4    3    7    0.000006   -0.000000
   -4    0   -4    4    7   -0.000098    0.000000
   -4    0   -4    5    7    0.000086   -0.000000
   -4    0   -4    6    7    0.000289   -0.000000
   -4    0   -4    7    7    0.000094    0.000000
   -4    0   -4    8    7    0.000022   -0.000000
   -4    0   -4    9    7    0.000128   -0.000000
   -4    0   -4   10    7   -0.000066    0.000000
   -4    0   -4   11    7    0.000002   -0.000000
   -4    0   -4   12    7    0.000001   -0.000000
   -4    0   -4   13    7   -0.000066    0.000000
   -4    0   -4   14    7   -0.000018   -0.000000
   -4    0   -4   15    7   -0.000118    0.000000
   -4    0   -4   16    7   -0.000439   -0.000000
   -4    0   -4   17    7   -0.000051   -0.000000
   -4    0   -4   18    7   -0.000114    0.000001
   -4    0   -4   19    7    0.000388    0.000000
   -4    0   -4   20    7   -0.000018   -0.000000
   -4    0   -4   21    7    0.000079    0.000000
   -4    0   -4   22    7    0.000245   -0.000000
   -4    0   -4    1    8   -0.000014    0.000000
   -4    0   -4    2    8    0.000006    0.000000
   -4    0   -4    3    8    0.000032    0.000000
   -4    0   -4    4    8   -0.000024    0.000000
   -4    0   -4    5    8    0.000088   -0.000000
   -4    0   -4    6    8    0.000040    0.000000
   -4    0   -4    7    8    0.000022    0.000000
   -4    0   -4    8    8    0.000339    0.000000
   -4    0   -4    9    8   -0.000007   -0.000000
   -4    0   -4   10    8    0.000614   -0.000000
   -4    0   -4   11    8   -0.000072    0.000000
   -4    0   -4   12    8   -0.000047    0.000000
   -4    0   -4   13    8   -0.000021    0.000000
   -4    0   -4   14    8    0.000614    0.000000
   -4    0   -4   15    8    0.000269   -0.000000
   -4    0   -4   16    8   -0.000018    0.000000
   -4    0   -4   17    8   -0.000558   -0.000000
   -4    0   -4   18    8   -0.000231    0.000000
   -4    0   -4   19    8   -0.000114   -0.000000
   -4    0   -4   20    8    0.000052    0.000000
   -4    0   -4   21    8    0.000025    0.000000
   -4    0   -4   22    8   -0.000016   -0.000000
   -4    0   -4    1    9   -0.000097    0.000000
   -4    0   -4    2    9   -0.000098   -0.000000
   -4    0   -4    3    9   -0.000024   -0.000000
   -4    0   -4    4    9    0.000084    0.000000
   -4    0   -4    5    9    0.000046    0.000000
   -4    0   -4    6    9    0.000192    0.000000
   -4    0   -4    7    9    0.000128    0.000000
   -4    0   -4    8    9   -0.000007    0.000000
   -4    0   -4    9    9   -0.000030   -0.000000
   -4    0   -4   10    9   -0.000003   -0.000000
   -4    0   -4   11    9   -0.000006    0.000000
   -4    0   -4   12    9    0.000016   -0.000000
   -4    0   -4   13    9    0.000028   -0.000000
   -4    0   -4   14    9   -0.000056    0.000000
   -4    0   -4   15    9   -0.000136    0.000000
   -4    0   -4   16    9   -0.000177   -0.000000
   -4    0   -4   17    9   -0.000090    0.000000
   -4    0   -4   18    9   -0.000107   -0.000000
   -4    0   -4   19    9    0.000233   -0.000001
   -4    0   -4   20    9   -0.000019    0.000000
   -4    0   -4   21    9    0.000074   -0.000000
   -4    0   -4   22    9    0.000027   -0.000000
   -4    0   -4    1   10    0.000022    0.000000
   -4    0   -4    2   10    0.000086    0.000000
   -4    0   -4    3   10    0.000087    0.000000
   -4    0   -4    4   10    0.000047   -0.000000
   -4    0   -4    5   10    0.000127   -0.000000
   -4    0   -4    6   10   -0.000025    0.000000
   -4    0   -4    7   10   -0.000066   -0.000000
   -4    0   -4    8   10    0.000614    0.000000
   -4    0   -4    9   10   -0.000003    0.000000
   -4    0   -4   10   10   -0.000376    0.000000
   -4    0   -4   11   10   -0.000046    0.000000
   -4    0   -4   12   10   -0.000018   -0.000000
   -4    0   -4   13   10    0.000043   -0.000000
   -4    0   -4   14   10    0.000969   -0.000000
   -4    0   -4   15   10    0.000669    0.000000
   -4    0   -4   16   10   -0.000204   -0.000000
   -4    0   -4   17   10   -0.000941    0.000001
   -4    0   -4   18   10   -0.000637   -0.000001
   -4    0   -4   19   10   -0.000172   -0.000000
   -4    0   -4   20   10    0.000025    0.000000
   -4    0   -4   21   10    0.000022   -0.000000
   -4    0   -4   22   10    0.000029    0.000000
   -4    0   -4    1   11    0.000590   -0.000000
   -4    0   -4    2   11    0.000018   -0.000001
   -4    0   -4    3   11   -0.000612    0.000000
   -4    0   -4    4   11    0.000056    0.000000
   -4    0   -4    5   11   -0.000968   -0.000000
   -4    0   -4    6   11   -0.000010   -0.000000
   -4    0   -4    7   11    0.000002    0.000000
   -4    0   -4    8   11   -0.000072   -0.000000
   -4    0   -4    9   11   -0.000006   -0.000000
   -4    0   -4   10   11   -0.000046   -0.000000
   -4    0   -4   11   11    0.002117   -0.000000
   -4    0   -4   12   11    0.001288    0.000000
   -4    0   -4   13   11   -0.000092    0.000000
   -4    0   -4   14   11    0.000044    0.000000
   -4    0   -4   15   11    0.000057    0.000000
   -4    0   -4   16   11    0.000053   -0.000000
   -4    0   -4   17   11    0.000195    0.000000
   -4    0   -4   18   11    0.000148   -0.000000
   -4    0   -4   19   11    0.000032    0.000000
   -4    0   -4   20   11    0.000296   -0.000000
   -4    0   -4   21   11    0.000148    0.000000
   -4    0   -4   22   11   -0.000038    0.000000
   -4    0   -4    1   12    0.000528   -0.000000
   -4    0   -4    2   12    0.000117    0.000000
   -4    0   -4    3   12   -0.000268    0.000000
   -4    0   -4    4   12    0.000136   -0.000000
   -4    0   -4    5   12   -0.000671    0.000000
   -4    0   -4    6   12    0.000002    0.000000
   -4    0   -4    7   12    0.000001    0.000000
   -4    0   -4    8   12   -0.000047   -0.000000
   -4    0   -4    9   12    0.000016    0.000000
   -4    0   -4   10   12   -0.000018    0.000000
   -4    0   -4   11   12    0.001288   -0.000000
   -4    0   -4   12   12    0.000606    0.000000
   -4    0   -4   13   12   -0.000037   -0.000000
   -4    0   -4   14   12    0.000057   -0.000000
   -4    0   -4   15   12    0.000068   -0.000000
   -4    0   -4   16   12    0.000086   -0.000000
   -4    0   -4   17   12    0.000134    0.000000
   -4    0   -4   18   12    0.000033   -0.000000
   -4    0   -4   19   12   -0.000006    0.000000
   -4    0   -4   20   12    0.000149   -0.000000
   -4    0   -4   21   12    0.000121    0.000000
   -4    0   -4   22   12    0.000117   -0.000000
   -4    0   -4    1   13    0.000992    0.000000
   -4    0   -4    2   13    0.000440   -0.000000
   -4    0   -4    3   13    0.000016    0.000000
   -4    0   -4    4   13    0.000177   -0.000000
   -4    0   -4    5   13    0.000205    0.000000
   -4    0   -4    6   13   -0.000029   -0.000000
   -4    0   -4    7   13   -0.000066   -0.000000
   -4    0   -4    8   13   -0.000021   -0.000000
   -4    0   -4    9   13    0.000028    0.000000
   -4    0   -4   10   13    0.000043    0.000000
   -4    0   -4   11   13   -0.000092   -0.000000
   -4    0   -4   12   13   -0.000037    0.000000
   -4    0   -4   13   13   -0.000431   -0.000000
   -4    0   -4   14   13    0.000053    0.000000
   -4    0   -4   15   13    0.000085    0.000000
   -4    0   -4   16   13    0.000043    0.000000
   -4    0   -4   17   13    0.000060    0.000000
   -4    0   -4   18   13    0.000001   -0.000000
   -4    0   -4   19   13   -0.000014    0.000000
   -4    0   -4   20   13    0.000042    0.000000
   -4    0   -4   21   13   -0.000124   -0.000000
   -4    0   -4   22   13    0.000425    0.000000
   -4    0   -4    1   14    0.000010    0.000000
   -4    0   -4    2   14   -0.000002   -0.000000
   -4    0   -4    3   14    0.000073    0.000000
   -4    0   -4    4   14    0.000006    0.000000
   -4    0   -4    5   14    0.000046    0.000000
   -4    0   -4    6   14   -0.000591    0.000000
   -4    0   -4    7   14   -0.000018    0.000000
   -4    0   -4    8   14    0.000614   -0.000000
   -4    0   -4    9   14   -0.000056   -0.000000
   -4    0   -4   10   14    0.000969    0.000000
   -4    0   -4   11   14    0.000044   -0.000000
   -4    0   -4   12   14    0.000057    0.000000
   -4    0   -4   13   14    0.000053   -0.000000
   -4    0   -4   14   14    0.001884   -0.000000
   -4    0   -4   15   14    0.001288    0.000000
   -4    0   -4   16   14   -0.000092    0.000000
   -4    0   -4   17   14    0.000287   -0.000000
   -4    0   -4   18   14    0.000148    0.000000
   -4    0   -4   19   14   -0.000038    0.000000
   -4    0   -4   20   14    0.000194    0.000000
   -4    0   -4   21   14    0.000148   -0.000000
   -4    0   -4   22   14    0.000033    0.000000
   -4    0   -4    1   15   -0.000002   -0.000000
   -4    0   -4    2   15   -0.000001   -0.000000
   -4    0   -4    3   15    0.000047    0.000000
   -4    0   -4    4   15   -0.000016   -0.000000
   -4    0   -4    5   15    0.000018   -0.000000
   -4    0   -4    6   15   -0.000528   -0.000000
   -4    0   -4    7   15   -0.000118   -0.000000
   -4    0   -4    8   15    0.000269    0.000000
   -4    0   -4    9   15   -0.000136   -0.000000
   -4    0   -4   10   15    0.000669   -0.000000
   -4    0   -4   11   15    0.000057   -0.000000
   -4    0   -4   12   15    0.000068    0.000000
   -4    0   -4   13   15    0.000085   -0.000000
   -4    0   -4   14   15    0.001288   -0.000000
   -4    0   -4   15   15    0.000373    0.000000
   -4    0   -4   16   15   -0.000037    0.000000
   -4    0   -4   17   15    0.000149   -0.000000
   -4    0   -4   18   15    0.000113    0.000000
   -4    0   -4   19   15    0.000116   -0.000000
   -4    0   -4   20   15    0.000134    0.000000
   -4    0   -4   21   15    0.000033   -0.000000
   -4    0   -4   22   15   -0.000007    0.000000
   -4    0   -4    1   16    0.000029    0.000000
   -4    0   -4    2   16    0.000066    0.000000
   -4    0   -4    3   16    0.000021    0.000000
   -4    0   -4    4   16   -0.000028   -0.000000
   -4    0   -4    5   16   -0.000043   -0.000000
   -4    0   -4    6   16   -0.000991   -0.000000
   -4    0   -4    7   16   -0.000439    0.000000
   -4    0   -4    8   16   -0.000018   -0.000000
   -4    0   -4    9   16   -0.000177    0.000000
   -4    0   -4   10   16   -0.000204    0.000000
   -4    0   -4   11   16    0.000053    0.000000
   -4    0   -4   12   16    0.000086    0.000000
   -4    0   -4   13   16    0.000043   -0.000000
   -4    0   -4   14   16   -0.000092   -0.000000
   -4    0   -4   15   16   -0.000037   -0.000000
   -4    0   -4   16   16   -0.000661   -0.000000
   -4    0   -4   17   16    0.000041    0.000000
   -4    0   -4   18   16   -0.000123   -0.000000
   -4    0   -4   19   16    0.000433    0.000000
   -4    0   -4   20   16    0.000059    0.000000
   -4    0   -4   21   16    0.000001   -0.000000
   -4    0   -4   22   16   -0.000013    0.000000
   -4    0   -4    1   17    0.000088    0.000000
   -4    0   -4    2   17    0.000018   -0.000000
   -4    0   -4    3   17   -0.000053    0.000000
   -4    0   -4    4   17    0.000019    0.000000
   -4    0   -4    5   17   -0.000025    0.000000
   -4    0   -4    6   17   -0.000607    0.000000
   -4    0   -4    7   17   -0.000051    0.000000
   -4    0   -4    8   17   -0.000558    0.000000
   -4    0   -4    9   17   -0.000090   -0.000000
   -4    0   -4   10   17   -0.000941   -0.000001
   -4    0   -4   11   17    0.000195   -0.000000
   -4    0   -4   12   17    0.000134   -0.000000
   -4    0   -4   13   17    0.000060   -0.000000
   -4    0   -4   14   17    0.000287    0.000000
   -4    0   -4   15   17    0.000149    0.000000
   -4    0   -4   16   17    0.000041   -0.000000
   -4    0   -4   17   17    0.001896   -0.000000
   -4    0   -4   18   17    0.001255    0.000000
   -4    0   -4   19   17    0.000083    0.000000
   -4    0   -4   20   17   -0.000051   -0.000000
   -4    0   -4   21   17    0.000050   -0.000000
   -4    0   -4   22   17    0.000119    0.000000
   -4    0   -4    1   18   -0.000044   -0.000000
   -4    0   -4    2   18   -0.000079    0.000000
   -4    0   -4    3   18   -0.000025    0.000000
   -4    0   -4    4   18   -0.000074   -0.000000
   -4    0   -4    5   18   -0.000023   -0.000000
   -4    0   -4    6   18   -0.000562    0.000000
   -4    0   -4    7   18   -0.000114   -0.000001
   -4    0   -4    8   18   -0.000231   -0.000000
   -4    0   -4    9   18   -0.000107    0.000000
   -4    0   -4   10   18   -0.000637    0.000001
   -4    0   -4   11   18    0.000148    0.000000
   -4    0   -4   12   18    0.000033    0.000000
   -4    0   -4   13   18    0.000001    0.000000
   -4    0   -4   14   18    0.000148   -0.000000
   -4    0   -4   15   18    0.000113   -0.000000
   -4    0   -4   16   18   -0.000123    0.000000
   -4    0   -4   17   18    0.001255   -0.000000
   -4    0   -4   18   18    0.000423    0.000000
   -4    0   -4   19   18    0.000039   -0.000000
   -4    0   -4   20   18    0.000051    0.000000
   -4    0   -4   21   18    0.000025   -0.000000
   -4    0   -4   22   18    0.000102   -0.000000
   -4    0   -4    1   19   -0.000164   -0.000000
   -4    0   -4    2   19   -0.000245   -0.000000
   -4    0   -4    3   19    0.000016   -0.000000
   -4    0   -4    4   19   -0.000026   -0.000000
   -4    0   -4    5   19   -0.000029    0.000000
   -4    0   -4    6   19    0.000876    0.000001
   -4    0   -4    7   19    0.000388   -0.000000
   -4    0   -4    8   19   -0.000114    0.000000
   -4    0   -4    9   19    0.000233    0.000001
   -4    0   -4   10   19   -0.000172    0.000000
   -4    0   -4   11   19    0.000032   -0.000000
   -4    0   -4   12   19   -0.000006   -0.000000
   -4    0   -4   13   19   -0.000014   -0.000000
   -4    0   -4   14   19   -0.000038   -0.000000
   -4    0   -4   15   19    0.000116    0.000000
   -4    0   -4   16   19    0.000433   -0.000000
   -4    0   -4   17   19    0.000083   -0.000000
   -4    0   -4   18   19    0.000039    0.000000
   -4    0   -4   19   19   -0.000484   -0.000000
   -4    0   -4   20   19    0.000116   -0.000000
   -4    0   -4   21   19    0.000103    0.000001
   -4    0   -4   22   19    0.000021    0.000000
   -4    0   -4    1   20    0.000601   -0.000000
   -4    0   -4    2   20    0.000051   -0.000001
   -4    0   -4    3   20    0.000546   -0.000000
   -4    0   -4    4   20    0.000086    0.000000
   -4    0   -4    5   20    0.000940    0.000001
   -4    0   -4    6   20   -0.000088   -0.000000
   -4    0   -4    7   20   -0.000018    0.000000
   -4    0   -4    8   20    0.000052   -0.000000
   -4    0   -4    9   20   -0.000019   -0.000000
   -4    0   -4   10   20    0.000025   -0.000000
   -4    0   -4   11   20    0.000296    0.000000
   -4    0   -4   12   20    0.000149    0.000000
   -4    0   -4   13   20    0.000042   -0.000000
   -4    0   -4   14   20    0.000194   -0.000000
   -4    0   -4   15   20    0.000134   -0.000000
   -4    0   -4   16   20    0.000059   -0.000000
   -4    0   -4   17   20   -0.000051    0.000000
   -4    0   -4   18   20    0.000051   -0.000000
   -4    0   -4   19   20    0.000116    0.000000
   -4    0   -4   20   20    0.002043    0.000000
   -4    0   -4   21   20    0.001255    0.000000
   -4    0   -4   22   20    0.000083    0.000000
   -4    0   -4    1   21    0.000562   -0.000001
   -4    0   -4    2   21    0.000119    0.000001
   -4    0   -4    3   21    0.000230   -0.000000
   -4    0   -4    4   21    0.000108   -0.000000
   -4    0   -4    5   21    0.000647   -0.000001
   -4    0   -4    6   21    0.000044    0.000000
   -4    0   -4    7   21    0.000079   -0.000000
   -4    0   -4    8   21    0.000025   -0.000000
   -4    0   -4    9   21    0.000074    0.000000
   -4    0   -4   10   21    0.000022    0.000000
   -4    0   -4   11   21    0.000148   -0.000000
   -4    0   -4   12   21    0.000121   -0.000000
   -4    0   -4   13   21   -0.000124    0.000000
   -4    0   -4   14   21    0.000148    0.000000
   -4    0   -4   15   21    0.000033    0.000000
   -4    0   -4   16   21    0.000001    0.000000
   -4    0   -4   17   21    0.000050    0.000000
   -4    0   -4   18   21    0.000025    0.000000
   -4    0   -4   19   21    0.000103   -0.000001
   -4    0   -4   20   21    0.001255   -0.000000
   -4    0   -4   21   21    0.000570   -0.000000
   -4    0   -4   22   21    0.000041   -0.000000
   -4    0   -4    1   22   -0.000881   -0.000001
   -4    0   -4    2   22   -0.000388    0.000000
   -4    0   -4    3   22    0.000119   -0.000000
   -4    0   -4    4   22   -0.000234   -0.000001
   -4    0   -4    5   22    0.000172    0.000000
   -4    0   -4    6   22    0.000164    0.000000
   -4    0   -4    7   22    0.000245    0.000000
   -4    0   -4    8   22   -0.000016    0.000000
   -4    0   -4    9   22    0.000027    0.000000
   -4    0   -4   10   22    0.000029   -0.000000
   -4    0   -4   11   22   -0.000038   -0.000000
   -4    0   -4   12   22    0.000117    0.000000
   -4    0   -4   13   22    0.000425   -0.000000
   -4    0   -4   14   22    0.000033   -0.000000
   -4    0   -4   15   22   -0.000007   -0.000000
   -4    0   -4   16   22   -0.000013   -0.000000
   -4    0   -4   17   22    0.000119   -0.000000
   -4    0   -4   18   22    0.000102    0.000000
   -4    0   -4   19   22    0.000021   -0.000000
   -4    0   -4   20   22    0.000083   -0.000000
   -4    0   -4   21   22    0.000041    0.000000
   -4    0   -4   22   22   -0.000361    0.000000
   -4    0   -3    1    1   -0.000247   -0.000000
   -4    0   -3    2    1   -0.000257   -0.000001
   -4    0   -3    3    1   -0.000002   -0.000000
   -4    0   -3    4    1   -0.000206    0.000000
   -4    0   -3    5    1   -0.000093    0.000000
   -4    0   -3    6    1   -0.000054   -0.000000
   -4    0   -3    7    1   -0.000145   -0.000000
   -4    0   -3    8    1    0.000013    0.000000
   -4    0   -3    9    1   -0.000026    0.000000
   -4    0   -3   10    1    0.000082   -0.000000
   -4    0   -3   11    1    0.000015   -0.000000
   -4    0   -3   12    1   -0.000014    0.000000
   -4    0   -3   13    1   -0.000118    0.000000
   -4    0   -3   14    1    0.000080   -0.000000
   -4    0   -3   15    1    0.000044   -0.000000
   -4    0   -3   16    1    0.000077   -0.000000
   -4    0   -3   17    1    0.000024   -0.000000
   -4    0   -3   18    1    0.000035   -0.000000
   -4    0   -3   19    1   -0.000145    0.000000
   -4    0   -3   20    1    0.000031   -0.000001
   -4    0   -3   21    1   -0.000028   -0.000000
   -4    0   -3   22    1    0.000087    0.000001
   -4    0   -3    1    2    0.000596   -0.000000
   -4    0   -3    2    2    0.000404   -0.000000
   -4    0   -3    3    2   -0.000041    0.000001
   -4    0   -3    4    2    0.000247    0.000000
   -4    0   -3    5    2    0.000093    0.000000
   -4    0   -3    6    2   -0.000145    0.000000
   -4    0   -3    7    2   -0.000179   -0.000000
   -4    0   -3    8    2   -0.000066   -0.000000
   -4    0   -3    9    2   -0.000005    0.000000
   -4    0   -3   10    2    0.000047    0.000000
   -4    0   -3   11    2   -0.000013   -0.000000
   -4    0   -3   12    2    0.000006    0.000000
   -4    0   -3   13    2   -0.000146   -0.000000
   -4    0   -3   14    2   -0.000034   -0.000000
   -4    0   -3   15    2    0.000053    0.000000
   -4    0   -3   16    2    0.000024    0.000000
   -4    0   -3   17    2   -0.000017    0.000000
   -4    0   -3   18    2   -0.000029   -0.000000
   -4    0   -3   19    2    0.000090    0.000000
   -4    0   -3   20    2   -0.000006   -0.000000
   -4    0   -3   21    2   -0.000013    0.000001
   -4    0   -3   22    2    0.000096    0.000002
   -4    0   -3    1    3   -0.000052   -0.000000
   -4    0   -3    2    3    0.000002   -0.000000
   -4    0   -3    3    3   -0.000195    0.000000
   -4    0   -3    4    3    0.000085   -0.000000
   -4    0   -3    5    3   -0.000367   -0.000000
   -4    0   -3    6    3    0.000013   -0.000000
   -4    0   -3    7    3   -0.000066    0.000000
   -4    0   -3    8    3   -0.000013   -0.000000
   -4    0   -3    9    3   -0.000042   -0.000000
   -4    0   -3   10    3   -0.000031    0.000000
   -4    0   -3   11    3    0.000257    0.000000
   -4    0   -3   12    3   -0.000010    0.000000
   -4    0   -3   13    3    0.000050   -0.000000
   -4    0   -3   14    3    0.000035   -0.000000
   -4    0   -3   15    3    0.000014   -0.000000
   -4    0   -3   16    3    0.000176   -0.000000
   -4    0   -3   17    3    0.000104   -0.000000
   -4    0   -3   18    3    0.000112   -0.000000
   -4    0   -3   19    3   -0.000094    0.000000
   -4    0   -3   20    3   -0.000317   -0.000001
   -4    0   -3   21    3   -0.000048   -0.000000
   -4    0   -3   22    3    0.000001   -0.000000
   -4    0   -3    1    4    0.000481    0.000000
   -4    0   -3    2    4    0.000251   -0.000000
   -4    0   -3    3    4    0.000005    0.000000
   -4    0   -3    4    4    0.000222   -0.000000
   -4    0   -3    5    4    0.000072    0.000001
   -4    0   -3    6    4   -0.000025   -0.000000
   -4    0   -3    7    4   -0.000005   -0.000000
   -4    0   -3    8    4   -0.000042    0.000000
   -4    0   -3    9    4   -0.000006   -0.000000
   -4    0   -3   10    4    0.000026   -0.000000
   -4    0   -3   11    4    0.000026    0.000000
   -4    0   -3   12    4   -0.000057    0.000000
   -4    0   -3   13    4   -0.000055    0.000000
   -4    0   -3   14    4    0.000001   -0.000000
   -4    0   -3   15    4    0.000037    0.000000
   -4    0   -3   16    4    0.000015   -0.000000
   -4    0   -3   17    4    0.000020    0.000000
   -4    0   -3   18    4    0.000002   -0.000000
   -4    0   -3   19    4    0.000092   -0.000000
   -4    0   -3   20    4    0.000032    0.000001
   -4    0   -3   21    4   -0.000077   -0.000001
   -4    0   -3   22    4    0.000057   -0.000002
   -4    0   -3    1    5    0.000034   -0.000000
   -4    0   -3    2    5    0.000009    0.000000
   -4    0   -3    3    5   -0.000083   -0.000000
   -4    0   -3    4    5   -0.000031   -0.000000
   -4    0   -3    5    5   -0.000138   -0.000000
   -4    0   -3    6    5    0.000083    0.000000
   -4    0   -3    7    5    0.000048   -0.000000
   -4    0   -3    8    5   -0.000031    0.000000
   -4    0   -3    9    5    0.000026    0.000000
   -4    0   -3   10    5    0.000021   -0.000000
   -4    0   -3   11    5   -0.000014    0.000000
   -4    0   -3   12    5    0.000265    0.000000
   -4    0   -3   13    5   -0.000101    0.000000
   -4    0   -3   14    5   -0.000001    0.000000
   -4    0   -3   15    5   -0.000036   -0.000000
   -4    0   -3   16    5    0.000001   -0.000000
   -4    0   -3   17    5    0.000082   -0.000000
   -4    0   -3   18    5    0.000068    0.000000
   -4    0   -3   19    5    0.000019    0.000000
   -4    0   -3   20    5   -0.000048   -0.000000
   -4    0   -3   21    5   -0.000258   -0.000000
   -4    0   -3   22    5   -0.000023    0.000000
   -4    0   -3    1    6   -0.000148    0.000000
   -4    0   -3    2    6   -0.000053    0.000000
   -4    0   -3    3    6    0.000093    0.000000
   -4    0   -3    4    6   -0.000107   -0.000000
   -4    0   -3    5    6    0.000034    0.000000
   -4    0   -3    6    6   -0.000162    0.000000
   -4    0   -3    7    6    0.000594    0.000000
   -4    0   -3    8    6   -0.000052    0.000000
   -4    0   -3    9    6    0.000480   -0.000000
   -4    0   -3   10    6    0.000034    0.000000
   -4    0   -3   11    6    0.000022    0.000000
   -4    0   -3   12    6    0.000025    0.000000
   -4    0   -3   13    6    0.000110   -0.000000
   -4    0   -3   14    6    0.000186    0.000000
   -4    0   -3   15    6   -0.000112   -0.000000
   -4    0   -3   16    6   -0.000413   -0.000000
   -4    0   -3   17    6    0.000237    0.000004
   -4    0   -3   18    6   -0.000052    0.000002
   -4    0   -3   19    6    0.000450   -0.000001
   -4    0   -3   20    6    0.000016    0.000000
   -4    0   -3   21    6   -0.000109    0.000000
   -4    0   -3   22    6    0.000065   -0.000000
   -4    0   -3    1    7   -0.000053   -0.000000
   -4    0   -3    2    7   -0.000003    0.000000
   -4    0   -3    3    7    0.000056    0.000000
   -4    0   -3    4    7   -0.000177   -0.000000
   -4    0   -3    5    7    0.000070   -0.000000
   -4    0   -3    6    7   -0.000259    0.000001
   -4    0   -3    7    7    0.000489    0.000000
   -4    0   -3    8    7    0.000002    0.000000
   -4    0   -3    9    7    0.000251    0.000000
   -4    0   -3   10    7    0.000009   -0.000000
   -4    0   -3   11    7    0.000082    0.000000
   -4    0   -3   12    7    0.000079    0.000000
   -4    0   -3   13    7    0.000005    0.000000
   -4    0   -3   14    7   -0.000205    0.000001
   -4    0   -3   15    7   -0.000174   -0.000001
   -4    0   -3   16    7   -0.000794    0.000000
   -4    0   -3   17    7   -0.000236    0.000001
   -4    0   -3   18    7   -0.000185   -0.000004
   -4    0   -3   19    7    0.000783   -0.000003
   -4    0   -3   20    7    0.000074    0.000000
   -4    0   -3   21    7    0.000076    0.000000
   -4    0   -3   22    7    0.000054   -0.000000
   -4    0   -3    1    8    0.000093   -0.000000
   -4    0   -3    2    8    0.000056   -0.000000
   -4    0   -3    3    8    0.000019   -0.000000
   -4    0   -3    4    8   -0.000000   -0.000000
   -4    0   -3    5    8    0.000013    0.000000
   -4    0   -3    6    8   -0.000002    0.000000
   -4    0   -3    7    8   -0.000041   -0.000001
   -4    0   -3    8    8   -0.000112    0.000000
   -4    0   -3    9    8    0.000005   -0.000000
   -4    0   -3   10    8   -0.000082    0.000000
   -4    0   -3   11    8    0.000014    0.000000
   -4    0   -3   12    8   -0.000021   -0.000000
   -4    0   -3   13    8   -0.000029    0.000000
   -4    0   -3   14    8   -0.000168    0.000000
   -4    0   -3   15    8    0.000277    0.000001
   -4    0   -3   16    8    0.000030    0.000000
   -4    0   -3   17    8    0.000219    0.000000
   -4    0   -3   18    8   -0.000275   -0.000004
   -4    0   -3   19    8    0.000025    0.000001
   -4    0   -3   20    8   -0.000100    0.000000
   -4    0   -3   21    8   -0.000056   -0.000000
   -4    0   -3   22    8    0.000042   -0.000000
   -4    0   -3    1    9   -0.000107    0.000000
   -4    0   -3    2    9   -0.000177    0.000000
   -4    0   -3    3    9   -0.000000   -0.000000
   -4    0   -3    4    9   -0.000266   -0.000000
   -4    0   -3    5    9    0.000185   -0.000000
   -4    0   -3    6    9   -0.000207   -0.000000
   -4    0   -3    7    9    0.000247   -0.000000
   -4    0   -3    8    9    0.000085    0.000000
   -4    0   -3    9    9    0.000306   -0.000000
   -4    0   -3   10    9   -0.000032    0.000000
   -4    0   -3   11    9    0.000036    0.000000
   -4    0   -3   12    9    0.000074   -0.000000
   -4    0   -3   13    9   -0.000010   -0.000000
   -4    0   -3   14    9   -0.000244   -0.000000
   -4    0   -3   15    9   -0.000291    0.000001
   -4    0   -3   16    9   -0.000911   -0.000001
   -4    0   -3   17    9   -0.000296   -0.000004
   -4    0   -3   18    9   -0.000327    0.000003
   -4    0   -3   19    9    0.000719    0.000005
   -4    0   -3   20    9   -0.000056   -0.000000
   -4    0   -3   21    9    0.000027    0.000000
   -4    0   -3   22    9    0.000139    0.000000
   -4    0   -3    1   10    0.000034   -0.000000
   -4    0   -3    2   10    0.000069    0.000000
   -4    0   -3    3   10    0.000013   -0.000000
   -4    0   -3    4   10    0.000185    0.000000
   -4    0   -3    5   10    0.000003    0.000000
   -4    0   -3    6   10   -0.000094   -0.000000
   -4    0   -3    7   10    0.000093   -0.000000
   -4    0   -3    8   10   -0.000367    0.000000
   -4    0   -3    9   10    0.000073   -0.000001
   -4    0   -3   10   10   -0.000054    0.000000
   -4    0   -3   11   10   -0.000038   -0.000001
   -4    0   -3   12   10   -0.000101   -0.000000
   -4    0   -3   13   10    0.000060    0.000000
   -4    0   -3   14   10   -0.000647    0.000001
   -4    0   -3   15   10    0.000505   -0.000001
   -4    0   -3   16   10   -0.000094    0.000001
   -4    0   -3   17   10    0.000687   -0.000006
   -4    0   -3   18   10   -0.000584    0.000005
   -4    0   -3   19   10    0.000233   -0.000004
   -4    0   -3   20   10   -0.000120   -0.000000
   -4    0   -3   21   10   -0.000096   -0.000000
   -4    0   -3   22   10   -0.000007   -0.000000
   -4    0   -3    1   11   -0.000186    0.000000
   -4    0   -3    2   11    0.000204    0.000001
   -4    0   -3    3   11    0.000167   -0.000000
   -4    0   -3    4   11    0.000245   -0.000000
   -4    0   -3    5   11    0.000645    0.000001
   -4    0   -3    6   11   -0.000080   -0.000000
   -4    0   -3    7   11    0.000034   -0.000000
   -4    0   -3    8   11   -0.000035   -0.000000
   -4    0   -3    9   11   -0.000001   -0.000000
   -4    0   -3   10   11    0.000001    0.000000
   -4    0   -3   11   11   -0.000226    0.000000
   -4    0   -3   12   11    0.000247   -0.000000
   -4    0   -3   13   11   -0.000083    0.000000
   -4    0   -3   14   11   -0.000064    0.000000
   -4    0   -3   15   11   -0.000005   -0.000000
   -4    0   -3   16   11   -0.000090    0.000000
   -4    0   -3   17   11   -0.000039    0.000000
   -4    0   -3   18   11    0.000063    0.000000
   -4    0   -3   19   11    0.000215    0.000000
   -4    0   -3   20   11    0.000447    0.000001
   -4    0   -3   21   11    0.000105    0.000000
   -4    0   -3   22   11   -0.000033    0.000001
   -4    0   -3    1   12    0.000112   -0.000000
   -4    0   -3    2   12    0.000175   -0.000001
   -4    0   -3    3   12   -0.000278    0.000001
   -4    0   -3    4   12    0.000290    0.000001
   -4    0   -3    5   12   -0.000504   -0.000001
   -4    0   -3    6   12   -0.000044   -0.000000
   -4    0   -3    7   12   -0.000053    0.000000
   -4    0   -3    8   12   -0.000013   -0.000000
   -4    0   -3    9   12   -0.000037    0.000000
   -4    0   -3   10   12    0.000036   -0.000000
   -4    0   -3   11   12    0.000244   -0.000000
   -4    0   -3   12   12    0.000147    0.000000
   -4    0   -3   13   12   -0.000239    0.000001
   -4    0   -3   14   12   -0.000006    0.000000
   -4    0   -3   15   12    0.000026   -0.000000
   -4    0   -3   16   12    0.000029    0.000000
   -4    0   -3   17   12    0.000028    0.000000
   -4    0   -3   18   12    0.000169   -0.000000
   -4    0   -3   19   12    0.000112    0.000000
   -4    0   -3   20   12    0.000246    0.000001
   -4    0   -3   21   12    0.000065    0.000001
   -4    0   -3   22   12   -0.000098    0.000000
   -4    0   -3    1   13    0.000414   -0.000000
   -4    0   -3    2   13    0.000793    0.000000
   -4    0   -3    3   13   -0.000030   -0.000000
   -4    0   -3    4   13    0.000911   -0.000001
   -4    0   -3    5   13    0.000092    0.000001
   -4    0   -3    6   13   -0.000077   -0.000000
   -4    0   -3    7   13   -0.000023    0.000000
   -4    0   -3    8   13   -0.000176   -0.000000
   -4    0   -3    9   13   -0.000015   -0.000000
   -4    0   -3   10   13   -0.000000   -0.000000
   -4    0   -3   11   13   -0.000132    0.000000
   -4    0   -3   12   13   -0.000225    0.000000
   -4    0   -3   13   13    0.000135    0.000000
   -4    0   -3   14   13   -0.000090   -0.000000
   -4    0   -3   15   13    0.000029   -0.000000
   -4    0   -3   16   13    0.000108   -0.000000
   -4    0   -3   17   13    0.000097    0.000000
   -4    0   -3   18   13    0.000071   -0.000000
   -4    0   -3   19   13    0.000360    0.000001
   -4    0   -3   20   13   -0.000185    0.000001
   -4    0   -3   21   13   -0.000192   -0.000002
   -4    0   -3   22   13   -0.000128   -0.000001
   -4    0   -3    1   14   -0.000022    0.000000
   -4    0   -3    2   14   -0.000082    0.000000
   -4    0   -3    3   14   -0.000015    0.000000
   -4    0   -3    4   14   -0.000036    0.000000
   -4    0   -3    5   14    0.000038   -0.000001
   -4    0   -3    6   14   -0.000015   -0.000000
   -4    0   -3    7   14    0.000012   -0.000000
   -4    0   -3    8   14   -0.000258    0.000000
   -4    0   -3    9   14   -0.000025   -0.000000
   -4    0   -3   10   14    0.000012   -0.000000
   -4    0   -3   11   14    0.000061   -0.000000
   -4    0   -3   12   14    0.000015    0.000000
   -4    0   -3   13   14   -0.000012    0.000000
   -4    0   -3   14   14   -0.000149    0.000000
   -4    0   -3   15   14    0.000245    0.000000
   -4    0   -3   16   14   -0.000132   -0.000000
   -4    0   -3   17   14    0.000430   -0.000001
   -4    0   -3   18   14    0.000229   -0.000000
   -4    0   -3   19   14    0.000132    0.000001
   -4    0   -3   20   14    0.000016   -0.000000
   -4    0   -3   21   14    0.000018    0.000000
   -4    0   -3   22   14   -0.000018    0.000000
   -4    0   -3    1   15   -0.000024    0.000000
   -4    0   -3    2   15   -0.000079    0.000000
   -4    0   -3    3   15    0.000021   -0.000000
   -4    0   -3    4   15   -0.000074   -0.000000
   -4    0   -3    5   15    0.000101   -0.000000
   -4    0   -3    6   15    0.000013    0.000000
   -4    0   -3    7   15   -0.000006    0.000000
   -4    0   -3    8   15    0.000009    0.000000
   -4    0   -3    9   15    0.000055    0.000000
   -4    0   -3   10   15   -0.000264    0.000000
   -4    0   -3   11   15    0.000015   -0.000000
   -4    0   -3   12   15    0.000045   -0.000000
   -4    0   -3   13   15    0.000021   -0.000000
   -4    0   -3   14   15    0.000246    0.000000
   -4    0   -3   15   15    0.000225   -0.000000
   -4    0   -3   16   15   -0.000225   -0.000000
   -4    0   -3   17   15    0.000077    0.000000
   -4    0   -3   18   15    0.000073   -0.000001
   -4    0   -3   19   15    0.000137   -0.000001
   -4    0   -3   20   15    0.000020    0.000000
   -4    0   -3   21   15   -0.000010   -0.000000
   -4    0   -3   22   15    0.000030   -0.000000
   -4    0   -3    1   16   -0.000110   -0.000000
   -4    0   -3    2   16   -0.000006    0.000000
   -4    0   -3    3   16    0.000029    0.000000
   -4    0   -3    4   16    0.000010   -0.000000
   -4    0   -3    5   16   -0.000060    0.000000
   -4    0   -3    6   16    0.000118    0.000000
   -4    0   -3    7   16    0.000146   -0.000000
   -4    0   -3    8   16   -0.000049   -0.000000
   -4    0   -3    9   16    0.000056    0.000000
   -4    0   -3   10   16    0.000099   -0.000000
   -4    0   -3   11   16   -0.000012   -0.000000
   -4    0   -3   12   16    0.000021    0.000000
   -4    0   -3   13   16    0.000086    0.000000
   -4    0   -3   14   16   -0.000083   -0.000000
   -4    0   -3   15   16   -0.000237   -0.000000
   -4    0   -3   16   16    0.000212   -0.000000
   -4    0   -3   17   16    0.000071    0.000001
   -4    0   -3   18   16    0.000146    0.000001
   -4    0   -3   19   16   -0.000139    0.000001
   -4    0   -3   20   16    0.000033    0.000000
   -4    0   -3   21   16   -0.000057   -0.000000
   -4    0   -3   22   16   -0.000037   -0.000000
   -4    0   -3    1   17   -0.000016    0.000000
   -4    0   -3    2   17   -0.000075    0.000000
   -4    0   -3    3   17    0.000100    0.000000
   -4    0   -3    4   17    0.000056   -0.000000
   -4    0   -3    5   17    0.000120   -0.000000
   -4    0   -3    6   17   -0.000032   -0.000001
   -4    0   -3    7   17    0.000006    0.000000
   -4    0   -3    8   17    0.000321   -0.000001
   -4    0   -3    9   17   -0.000028    0.000001
   -4    0   -3   10   17    0.000057   -0.000000
   -4    0   -3   11   17    0.000016    0.000000
   -4    0   -3   12   17    0.000020   -0.000000
   -4    0   -3   13   17    0.000032   -0.000000
   -4    0   -3   14   17    0.000451   -0.000001
   -4    0   -3   15   17    0.000247   -0.000001
   -4    0   -3   16   17   -0.000185   -0.000001
   -4    0   -3   17   17   -0.000237   -0.000000
   -4    0   -3   18   17    0.000191    0.000001
   -4    0   -3   19   17    0.000148   -0.000000
   -4    0   -3   20   17    0.000139    0.000000
   -4    0   -3   21   17    0.000091    0.000000
   -4    0   -3   22   17   -0.000024    0.000000
   -4    0   -3    1   18    0.000109    0.000000
   -4    0   -3    2   18   -0.000075    0.000000
   -4    0   -3    3   18    0.000057   -0.000000
   -4    0   -3    4   18   -0.000027    0.000000
   -4    0   -3    5   18    0.000096   -0.000000
   -4    0   -3    6   18    0.000026   -0.000000
   -4    0   -3    7   18    0.000014    0.000001
   -4    0   -3    8   18    0.000057   -0.000000
   -4    0   -3    9   18    0.000073   -0.000001
   -4    0   -3   10   18    0.000251   -0.000000
   -4    0   -3   11   18    0.000018   -0.000000
   -4    0   -3   12   18   -0.000010    0.000000
   -4    0   -3   13   18   -0.000056    0.000000
   -4    0   -3   14   18    0.000106   -0.000000
   -4    0   -3   15   18    0.000069   -0.000001
   -4    0   -3   16   18   -0.000196    0.000002
   -4    0   -3   17   18    0.000178   -0.000000
   -4    0   -3   18   18    0.000167   -0.000000
   -4    0   -3   19   18    0.000193    0.000000
   -4    0   -3   20   18    0.000091    0.000000
   -4    0   -3   21   18    0.000028    0.000000
   -4    0   -3   22   18    0.000054   -0.000001
   -4    0   -3    1   19   -0.000065   -0.000000
   -4    0   -3    2   19   -0.000054   -0.000000
   -4    0   -3    3   19   -0.000041   -0.000000
   -4    0   -3    4   19   -0.000140    0.000000
   -4    0   -3    5   19    0.000007   -0.000000
   -4    0   -3    6   19   -0.000089    0.000001
   -4    0   -3    7   19   -0.000096    0.000002
   -4    0   -3    8   19   -0.000004    0.000000
   -4    0   -3    9   19   -0.000060   -0.000001
   -4    0   -3   10   19    0.000029   -0.000000
   -4    0   -3   11   19   -0.000017   -0.000000
   -4    0   -3   12   19    0.000029    0.000000
   -4    0   -3   13   19   -0.000038    0.000000
   -4    0   -3   14   19   -0.000032   -0.000001
   -4    0   -3   15   19   -0.000097   -0.000000
   -4    0   -3   16   19   -0.000132    0.000001
   -4    0   -3   17   19    0.000082   -0.000000
   -4    0   -3   18   19    0.000219   -0.000001
   -4    0   -3   19   19    0.000073    0.000000
   -4    0   -3   20   19   -0.000023   -0.000000
   -4    0   -3   21   19    0.000051    0.000001
   -4    0   -3   22   19   -0.000016   -0.000000
   -4    0   -3    1   20   -0.000238    0.000004
   -4    0   -3    2   20    0.000232    0.000001
   -4    0   -3    3   20   -0.000214    0.000000
   -4    0   -3    4   20    0.000300   -0.000004
   -4    0   -3    5   20   -0.000676   -0.000006
   -4    0   -3    6   20   -0.000024   -0.000000
   -4    0   -3    7   20    0.000016    0.000000
   -4    0   -3    8   20   -0.000104   -0.000000
   -4    0   -3    9   20   -0.000019    0.000000
   -4    0   -3   10   20   -0.000081    0.000000
   -4    0   -3   11   20    0.000426    0.000001
   -4    0   -3   12   20    0.000077   -0.000000
   -4    0   -3   13   20    0.000072   -0.000001
   -4    0   -3   14   20   -0.000039   -0.000000
   -4    0   -3   15   20    0.000028   -0.000000
   -4    0   -3   16   20    0.000098   -0.000000
   -4    0   -3   17   20    0.000456    0.000000
   -4    0   -3   18   20    0.000375    0.000000
   -4    0   -3   19   20    0.000036    0.000000
   -4    0   -3   20   20   -0.000287    0.000000
   -4    0   -3   21   20    0.000184    0.000000
   -4    0   -3   22   20    0.000081   -0.000000
   -4    0   -3    1   21    0.000048    0.000002
   -4    0   -3    2   21    0.000186   -0.000004
   -4    0   -3    3   21    0.000282   -0.000004
   -4    0   -3    4   21    0.000323    0.000003
   -4    0   -3    5   21    0.000578    0.000005
   -4    0   -3    6   21   -0.000034   -0.000000
   -4    0   -3    7   21    0.000029   -0.000000
   -4    0   -3    8   21   -0.000112   -0.000000
   -4    0   -3    9   21   -0.000002   -0.000000
   -4    0   -3   10   21   -0.000068    0.000000
   -4    0   -3   11   21    0.000229    0.000000
   -4    0   -3   12   21    0.000068    0.000001
   -4    0   -3   13   21    0.000149   -0.000001
   -4    0   -3   14   21    0.000063   -0.000000
   -4    0   -3   15   21    0.000169    0.000000
   -4    0   -3   16   21    0.000071    0.000000
   -4    0   -3   17   21    0.000376   -0.000000
   -4    0   -3   18   21    0.000195   -0.000000
   -4    0   -3   19   21    0.000076    0.000001
   -4    0   -3   20   21    0.000189   -0.000001
   -4    0   -3   21   21    0.000117    0.000000
   -4    0   -3   22   21    0.000218    0.000001
   -4    0   -3    1   22   -0.000449   -0.000001
   -4    0   -3    2   22   -0.000778   -0.000003
   -4    0   -3    3   22   -0.000028    0.000000
   -4    0   -3    4   22   -0.000721    0.000005
   -4    0   -3    5   22   -0.000227   -0.000003
   -4    0   -3    6   22    0.000145    0.000000
   -4    0   -3    7   22   -0.000091    0.000000
   -4    0   -3    8   22    0.000093    0.000000
   -4    0   -3    9   22   -0.000092   -0.000000
   -4    0   -3   10   22   -0.000019    0.000000
   -4    0   -3   11   22    0.000132   -0.000001
   -4    0   -3   12   22    0.000133    0.000001
   -4    0   -3   13   22   -0.000135   -0.000001
   -4    0   -3   14   22    0.000214   -0.000000
   -4    0   -3   15   22    0.000112   -0.000000
   -4    0   -3   16   22    0.000361   -0.000001
   -4    0   -3   17   22    0.000035    0.000000
   -4    0   -3   18   22    0.000077   -0.000001
   -4    0   -3   19   22   -0.000681   -0.000000
   -4    0   -3   20   22    0.000147   -0.000000
   -4    0   -3   21   22    0.000194   -0.000000
   -4    0   -3   22   22    0.000032   -0.000000
   -4    0   -2    1    1    0.000088   -0.000173
   -4    0   -2    2    1   -0.000058    0.000000
   -4    0   -2    3    1   -0.000066   -0.000000
   -4    0   -2    4    1   -0.000323    0.000002
   -4    0   -2    5    1   -0.000028   -0.000000
   -4    0   -2    6    1    0.000032    0.000000
   -4    0   -2    7    1   -0.000101    0.000000
   -4    0   -2    8    1    0.000002   -0.000000
   -4    0   -2    9    1   -0.000034   -0.000000
   -4    0   -2   10    1   -0.000035   -0.000000
   -4    0   -2   11    1   -0.000045    0.000001
   -4    0   -2   12    1    0.000053   -0.000000
   -4    0   -2   13    1   -0.000123   -0.000001
   -4    0   -2   14    1    0.000031   -0.000000
   -4    0   -2   15    1    0.000072   -0.000000
   -4    0   -2   16    1    0.000093   -0.000000
   -4    0   -2   17    1    0.000056   -0.000000
   -4    0   -2   18    1   -0.000001   -0.000000
   -4    0   -2   19    1   -0.000203    0.000000
   -4    0   -2   20    1   -0.000038    0.000007
   -4    0   -2   21    1    0.000059    0.000000
   -4    0   -2   22    1    0.000032    0.000005
   -4    0   -2    1    2    0.000095    0.000001
   -4    0   -2    2    2    0.000580   -0.000174
   -4    0   -2    3    2    0.000034    0.000000
   -4    0   -2    4    2    0.000782    0.000000
   -4    0   -2    5    2    0.000121    0.000001
   -4    0   -2    6    2   -0.000101   -0.000000
   -4    0   -2    7    2    0.000168    0.000000
   -4    0   -2    8    2   -0.000108   -0.000000
   -4    0   -2    9    2    0.000069    0.000000
   -4    0   -2   10    2   -0.000003   -0.000000
   -4    0   -2   11    2   -0.000022   -0.000000
   -4    0   -2   12    2   -0.000218   -0.000000
   -4    0   -2   13    2    0.000236   -0.000000
   -4    0   -2   14    2   -0.000107    0.000000
   -4    0   -2   15    2   -0.000161    0.000000
   -4    0   -2   16    2   -0.000155    0.000000
   -4    0   -2   17    2    0.000019    0.000000
   -4    0   -2   18    2    0.000007    0.000000
   -4    0   -2   19    2    0.000499    0.000000
   -4    0   -2   20    2   -0.000057   -0.000000
   -4    0   -2   21    2   -0.000216   -0.000007
   -4    0   -2   22    2   -0.000143    0.000001
   -4    0   -2    1    3    0.000056   -0.000000
   -4    0   -2    2    3    0.000028    0.000000
   -4    0   -2    3    3    0.000347   -0.000167
   -4    0   -2    4    3   -0.000015    0.000000
   -4    0   -2    5    3    0.000099    0.000000
   -4    0   -2    6    3    0.000002    0.000000
   -4    0   -2    7    3   -0.000108    0.000000
   -4    0   -2    8    3    0.000027    0.000000
   -4    0   -2    9    3   -0.000057    0.000000
   -4    0   -2   10    3    0.000022   -0.000000
   -4    0   -2   11    3   -0.000113   -0.000001
   -4    0   -2   12    3    0.000007    0.000000
   -4    0   -2   13    3   -0.000083    0.000001
   -4    0   -2   14    3   -0.000012    0.000000
   -4    0   -2   15    3    0.000055   -0.000000
   -4    0   -2   16    3    0.000005    0.000000
   -4    0   -2   17    3   -0.000032    0.000000
   -4    0   -2   18    3   -0.000032   -0.000000
   -4    0   -2   19    3   -0.000014   -0.000000
   -4    0   -2   20    3    0.000123    0.000009
   -4    0   -2   21    3    0.000002    0.000002
   -4    0   -2   22    3   -0.000028   -0.000002
   -4    0   -2    1    4   -0.000088    0.000002
   -4    0   -2    2    4    0.000413    0.000000
   -4    0   -2    3    4    0.000038    0.000000
   -4    0   -2    4    4    0.000578   -0.000168
   -4    0   -2    5    4    0.000028    0.000000
   -4    0   -2    6    4   -0.000034    0.000000
   -4    0   -2    7    4    0.000069   -0.000000
   -4    0   -2    8    4   -0.000057   -0.000000
   -4    0   -2    9    4    0.000010    0.000000
   -4    0   -2   10    4    0.000009    0.000000
   -4    0   -2   11    4   -0.000047   -0.000000
   -4    0   -2   12    4   -0.000171    0.000000
   -4    0   -2   13    4    0.000181   -0.000001
   -4    0   -2   14    4   -0.000046    0.000000
   -4    0   -2   15    4   -0.000090    0.000000
   -4    0   -2   16    4   -0.000011   -0.000000
   -4    0   -2   17    4    0.000020    0.000000
   -4    0   -2   18    4    0.000088    0.000000
   -4    0   -2   19    4    0.000248    0.000000
   -4    0   -2   20    4   -0.000065   -0.000001
   -4    0   -2   21    4   -0.000167   -0.000000
   -4    0   -2   22    4   -0.000121    0.000007
   -4    0   -2    1    5   -0.000021   -0.000000
   -4    0   -2    2    5   -0.000021    0.000000
   -4    0   -2    3    5    0.000099    0.000000
   -4    0   -2    4    5    0.000025    0.000000
   -4    0   -2    5    5    0.000466   -0.000167
   -4    0   -2    6    5   -0.000035    0.000000
   -4    0   -2    7    5   -0.000003    0.000000
   -4    0   -2    8    5    0.000022    0.000000
   -4    0   -2    9    5    0.000010   -0.000000
   -4    0   -2   10    5   -0.000020   -0.000000
   -4    0   -2   11    5   -0.000151   -0.000000
   -4    0   -2   12    5    0.000010    0.000000
   -4    0   -2   13    5    0.000051   -0.000000
   -4    0   -2   14    5    0.000056   -0.000000
   -4    0   -2   15    5    0.000051   -0.000000
   -4    0   -2   16    5    0.000008    0.000000
   -4    0   -2   17    5   -0.000030   -0.000000
   -4    0   -2   18    5   -0.000068    0.000000
   -4    0   -2   19    5   -0.000026   -0.000000
   -4    0   -2   20    5    0.000138    0.000001
   -4    0   -2   21    5   -0.000026   -0.000000
   -4    0   -2   22    5    0.000018    0.000001
   -4    0   -2    1    6    0.000073    0.000000
   -4    0   -2    2    6   -0.000048    0.000000
   -4    0   -2    3    6    0.000066   -0.000000
   -4    0   -2    4    6   -0.000001    0.000000
   -4    0   -2    5    6   -0.000040   -0.000000
   -4    0   -2    6    6   -0.000170    0.000173
   -4    0   -2    7    6    0.000097   -0.000000
   -4    0   -2    8    6    0.000055    0.000000
   -4    0   -2    9    6   -0.000084   -0.000002
   -4    0   -2   10    6   -0.000021    0.000000
   -4    0   -2   11    6    0.000004   -0.000000
   -4    0   -2   12    6    0.000032   -0.000000
   -4    0   -2   13    6   -0.000016   -0.000000
   -4    0   -2   14    6    0.000014    0.000001
   -4    0   -2   15    6   -0.000021   -0.000000
   -4    0   -2   16    6    0.000219   -0.000001
   -4    0   -2   17    6    0.000001    0.000006
   -4    0   -2   18    6   -0.000050   -0.000001
   -4    0   -2   19    6   -0.000326    0.000006
   -4    0   -2   20    6    0.000048   -0.000000
   -4    0   -2   21    6    0.000039    0.000000
   -4    0   -2   22    6    0.000022    0.000000
   -4    0   -2    1    7   -0.000048   -0.000000
   -4    0   -2    2    7   -0.000084    0.000000
   -4    0   -2    3    7    0.000084   -0.000000
   -4    0   -2    4    7   -0.000049   -0.000000
   -4    0   -2    5    7   -0.000007   -0.000000
   -4    0   -2    6    7   -0.000056   -0.000000
   -4    0   -2    7    7    0.000319    0.000174
[...]
    5    0    2   20    4   -0.000030   -0.000000
    5    0    2   21    4   -0.000000    0.000000
    5    0    2   22    4    0.000529   -0.000002
    5    0    2    1    5   -0.000000   -0.000000
    5    0    2    2    5   -0.000070    0.000000
    5    0    2    3    5   -0.000000   -0.000000
    5    0    2    4    5   -0.000000   -0.000000
    5    0    2    5    5    0.000239    0.000071
    5    0    2    6    5   -0.000000   -0.000000
    5    0    2    7    5    0.000068   -0.000000
    5    0    2    8    5    0.000000   -0.000000
    5    0    2    9    5    0.000000    0.000000
    5    0    2   10    5   -0.000115   -0.000000
    5    0    2   11    5    0.000000   -0.000000
    5    0    2   12    5    0.000195    0.000000
    5    0    2   13    5    0.000000   -0.000000
    5    0    2   14    5    0.000000    0.000000
    5    0    2   15    5   -0.000033   -0.000000
    5    0    2   16    5    0.000000    0.000000
    5    0    2   17    5    0.000000   -0.000000
    5    0    2   18    5   -0.000003   -0.000000
    5    0    2   19    5   -0.000000   -0.000000
    5    0    2   20    5   -0.000000    0.000000
    5    0    2   21    5   -0.000284    0.000001
    5    0    2   22    5    0.000000   -0.000000
    5    0    2    1    6   -0.000110    0.000000
    5    0    2    2    6    0.000000   -0.000000
    5    0    2    3    6   -0.000012    0.000000
    5    0    2    4    6    0.000059    0.000000
    5    0    2    5    6   -0.000000    0.000000
    5    0    2    6    6   -0.000145   -0.000071
    5    0    2    7    6    0.000000    0.000000
    5    0    2    8    6    0.000011   -0.000000
    5    0    2    9    6    0.000179    0.000001
    5    0    2   10    6    0.000000    0.000000
    5    0    2   11    6   -0.000036   -0.000000
    5    0    2   12    6    0.000000   -0.000000
    5    0    2   13    6    0.000033   -0.000000
    5    0    2   14    6    0.000100   -0.000001
    5    0    2   15    6    0.000000   -0.000000
    5    0    2   16    6    0.000025    0.000000
    5    0    2   17    6    0.000111   -0.000004
    5    0    2   18    6    0.000000   -0.000000
    5    0    2   19    6   -0.000012   -0.000003
    5    0    2   20    6    0.000012    0.000000
    5    0    2   21    6   -0.000000    0.000000
    5    0    2   22    6   -0.000110   -0.000000
    5    0    2    1    7   -0.000000    0.000000
    5    0    2    2    7   -0.000136    0.000000
    5    0    2    3    7   -0.000000    0.000000
    5    0    2    4    7   -0.000000    0.000000
    5    0    2    5    7    0.000013   -0.000000
    5    0    2    6    7    0.000000    0.000000
    5    0    2    7    7   -0.000214   -0.000073
    5    0    2    8    7   -0.000000    0.000000
    5    0    2    9    7    0.000000   -0.000000
    5    0    2   10    7   -0.000070   -0.000000
    5    0    2   11    7    0.000000    0.000000
    5    0    2   12    7   -0.000037    0.000000
    5    0    2   13    7   -0.000000    0.000000
    5    0    2   14    7    0.000000   -0.000000
    5    0    2   15    7   -0.000107    0.000001
    5    0    2   16    7   -0.000000   -0.000000
    5    0    2   17    7    0.000000   -0.000000
    5    0    2   18    7   -0.000118    0.000004
    5    0    2   19    7    0.000000    0.000000
    5    0    2   20    7   -0.000000    0.000000
    5    0    2   21    7    0.000043    0.000000
    5    0    2   22    7   -0.000000    0.000000
    5    0    2    1    8   -0.000012   -0.000000
    5    0    2    2    8   -0.000000   -0.000000
    5    0    2    3    8    0.000013    0.000000
    5    0    2    4    8    0.000005    0.000000
    5    0    2    5    8    0.000000   -0.000000
    5    0    2    6    8    0.000012   -0.000000
    5    0    2    7    8    0.000000   -0.000000
    5    0    2    8    8   -0.000145   -0.000069
    5    0    2    9    8    0.000002   -0.000000
    5    0    2   10    8    0.000000    0.000000
    5    0    2   11    8   -0.000010   -0.000000
    5    0    2   12    8    0.000000    0.000000
    5    0    2   13    8   -0.000031   -0.000000
    5    0    2   14    8   -0.000041    0.000001
    5    0    2   15    8   -0.000000    0.000000
    5    0    2   16    8    0.000000   -0.000000
    5    0    2   17    8    0.000024   -0.000005
    5    0    2   18    8    0.000000   -0.000000
    5    0    2   19    8    0.000000   -0.000000
    5    0    2   20    8    0.000000    0.000000
    5    0    2   21    8    0.000000    0.000000
    5    0    2   22    8    0.000033    0.000000
    5    0    2    1    9    0.000059   -0.000000
    5    0    2    2    9    0.000000   -0.000000
    5    0    2    3    9    0.000005   -0.000000
    5    0    2    4    9   -0.000002    0.000000
    5    0    2    5    9   -0.000000   -0.000000
    5    0    2    6    9    0.000079    0.000001
    5    0    2    7    9   -0.000000   -0.000000
    5    0    2    8    9   -0.000036    0.000000
    5    0    2    9    9   -0.000431   -0.000069
    5    0    2   10    9    0.000000    0.000000
    5    0    2   11    9    0.000004   -0.000000
    5    0    2   12    9   -0.000000   -0.000000
    5    0    2   13    9   -0.000002    0.000000
    5    0    2   14    9   -0.000042    0.000000
    5    0    2   15    9    0.000000   -0.000000
    5    0    2   16    9    0.000074    0.000001
    5    0    2   17    9   -0.000047    0.000002
    5    0    2   18    9    0.000000   -0.000000
    5    0    2   19    9   -0.000045   -0.000007
    5    0    2   20    9   -0.000016    0.000000
    5    0    2   21    9   -0.000000   -0.000000
    5    0    2   22    9    0.000111   -0.000001
    5    0    2    1   10    0.000000   -0.000000
    5    0    2    2   10    0.000013    0.000000
    5    0    2    3   10   -0.000000   -0.000000
    5    0    2    4   10    0.000000    0.000000
    5    0    2    5   10    0.000012    0.000000
    5    0    2    6   10    0.000000   -0.000000
    5    0    2    7   10   -0.000007   -0.000000
    5    0    2    8   10    0.000000    0.000000
    5    0    2    9   10    0.000000   -0.000000
    5    0    2   10   10   -0.000015   -0.000071
    5    0    2   11   10   -0.000000   -0.000000
    5    0    2   12   10    0.000002   -0.000000
    5    0    2   13   10    0.000000    0.000000
    5    0    2   14   10   -0.000000    0.000000
    5    0    2   15   10   -0.000041    0.000001
    5    0    2   16   10   -0.000000    0.000000
    5    0    2   17   10    0.000000   -0.000000
    5    0    2   18   10    0.000024   -0.000004
    5    0    2   19   10   -0.000000    0.000000
    5    0    2   20   10   -0.000000   -0.000000
    5    0    2   21   10    0.000025   -0.000000
    5    0    2   22   10   -0.000000   -0.000000
    5    0    2    1   11   -0.000103   -0.000001
    5    0    2    2   11    0.000000   -0.000000
    5    0    2    3   11    0.000044    0.000001
    5    0    2    4   11    0.000043    0.000000
    5    0    2    5   11    0.000000   -0.000000
    5    0    2    6   11   -0.000019    0.000000
    5    0    2    7   11    0.000000   -0.000000
    5    0    2    8   11   -0.000002   -0.000000
    5    0    2    9   11   -0.000037    0.000000
    5    0    2   10   11   -0.000000    0.000000
    5    0    2   11   11    0.000108    0.000064
    5    0    2   12   11    0.000000   -0.000000
    5    0    2   13   11    0.000136    0.000000
    5    0    2   14   11   -0.000016    0.000000
    5    0    2   15   11   -0.000000   -0.000000
    5    0    2   16   11    0.000003    0.000000
    5    0    2   17   11    0.000021   -0.000000
    5    0    2   18   11    0.000000   -0.000000
    5    0    2   19   11    0.000003    0.000000
    5    0    2   20   11    0.000106   -0.000001
    5    0    2   21   11    0.000000   -0.000000
    5    0    2   22   11   -0.000137    0.000001
    5    0    2    1   12    0.000000   -0.000000
    5    0    2    2   12    0.000110    0.000001
    5    0    2    3   12    0.000000    0.000000
    5    0    2    4   12   -0.000000    0.000000
    5    0    2    5   12    0.000044    0.000001
    5    0    2    6   12   -0.000000   -0.000000
    5    0    2    7   12   -0.000019    0.000000
    5    0    2    8   12    0.000000    0.000000
    5    0    2    9   12    0.000000   -0.000000
    5    0    2   10   12    0.000033   -0.000000
    5    0    2   11   12    0.000000    0.000000
    5    0    2   12   12    0.000597    0.000064
    5    0    2   13   12    0.000000    0.000000
    5    0    2   14   12    0.000000    0.000000
    5    0    2   15   12   -0.000016    0.000000
    5    0    2   16   12    0.000000    0.000000
    5    0    2   17   12   -0.000000    0.000000
    5    0    2   18   12    0.000021   -0.000000
    5    0    2   19   12    0.000000    0.000000
    5    0    2   20   12   -0.000000   -0.000000
    5    0    2   21   12   -0.000052   -0.000000
    5    0    2   22   12    0.000000   -0.000000
    5    0    2    1   13   -0.000023    0.000000
    5    0    2    2   13    0.000000   -0.000000
    5    0    2    3   13   -0.000000   -0.000000
    5    0    2    4   13   -0.000070    0.000001
    5    0    2    5   13    0.000000   -0.000000
    5    0    2    6   13    0.000031    0.000002
    5    0    2    7   13   -0.000000    0.000000
    5    0    2    8   13   -0.000056   -0.000002
    5    0    2    9   13   -0.000015    0.000001
    5    0    2   10   13    0.000000    0.000000
    5    0    2   11   13   -0.000074    0.000000
    5    0    2   12   13    0.000000   -0.000000
    5    0    2   13   13   -0.000037    0.000063
    5    0    2   14   13    0.000003   -0.000000
    5    0    2   15   13   -0.000000   -0.000000
    5    0    2   16   13    0.000071   -0.000000
    5    0    2   17   13   -0.000002   -0.000000
    5    0    2   18   13   -0.000000   -0.000000
    5    0    2   19   13    0.000039    0.000002
    5    0    2   20   13   -0.000036   -0.000002
    5    0    2   21   13   -0.000000    0.000000
    5    0    2   22   13    0.000175    0.000000
    5    0    2    1   14    0.000036   -0.000000
    5    0    2    2   14    0.000000    0.000000
    5    0    2    3   14    0.000010    0.000000
    5    0    2    4   14   -0.000004   -0.000000
    5    0    2    5   14    0.000000   -0.000000
    5    0    2    6   14   -0.000017    0.000000
    5    0    2    7   14    0.000000   -0.000000
    5    0    2    8   14   -0.000012    0.000001
    5    0    2    9   14    0.000036    0.000000
    5    0    2   10   14    0.000000   -0.000000
    5    0    2   11   14   -0.000003   -0.000000
    5    0    2   12   14    0.000000   -0.000000
    5    0    2   13   14   -0.000050   -0.000000
    5    0    2   14   14   -0.000124   -0.000064
    5    0    2   15   14    0.000000   -0.000000
    5    0    2   16   14   -0.000073   -0.000000
    5    0    2   17   14    0.000094    0.000001
    5    0    2   18   14    0.000000    0.000000
    5    0    2   19   14    0.000005   -0.000002
    5    0    2   20   14   -0.000013    0.000000
    5    0    2   21   14   -0.000000    0.000000
    5    0    2   22   14    0.000036   -0.000000
    5    0    2    1   15   -0.000000   -0.000000
    5    0    2    2   15    0.000037    0.000000
    5    0    2    3   15    0.000000    0.000000
    5    0    2    4   15   -0.000000   -0.000000
    5    0    2    5   15   -0.000003   -0.000000
    5    0    2    6   15    0.000000   -0.000000
    5    0    2    7   15   -0.000100   -0.000000
    5    0    2    8   15   -0.000000   -0.000000
    5    0    2    9   15    0.000000    0.000000
    5    0    2   10   15   -0.000196    0.000000
    5    0    2   11   15   -0.000000    0.000000
    5    0    2   12   15    0.000030    0.000000
    5    0    2   13   15   -0.000000    0.000000
    5    0    2   14   15   -0.000000    0.000000
    5    0    2   15   15    0.000365   -0.000064
    5    0    2   16   15   -0.000000    0.000000
    5    0    2   17   15   -0.000000    0.000000
    5    0    2   18   15   -0.000042    0.000001
    5    0    2   19   15   -0.000000    0.000000
    5    0    2   20   15    0.000000    0.000000
    5    0    2   21   15    0.000028    0.000000
    5    0    2   22   15   -0.000000   -0.000000
    5    0    2    1   16   -0.000033   -0.000000
    5    0    2    2   16   -0.000000    0.000000
    5    0    2    3   16    0.000030   -0.000000
    5    0    2    4   16    0.000002    0.000000
    5    0    2    5   16    0.000000    0.000000
    5    0    2    6   16   -0.000256    0.000001
    5    0    2    7   16   -0.000000   -0.000000
    5    0    2    8   16    0.000032   -0.000000
    5    0    2    9   16    0.000596   -0.000000
    5    0    2   10   16   -0.000000   -0.000000
    5    0    2   11   16   -0.000050    0.000000
    5    0    2   12   16   -0.000000   -0.000000
    5    0    2   13   16   -0.000046    0.000000
    5    0    2   14   16    0.000135   -0.000001
    5    0    2   15   16   -0.000000   -0.000000
    5    0    2   16   16   -0.000266   -0.000063
    5    0    2   17   16    0.000155    0.000001
    5    0    2   18   16    0.000000   -0.000000
    5    0    2   19   16    0.000118   -0.000000
    5    0    2   20   16    0.000044   -0.000000
    5    0    2   21   16    0.000000   -0.000000
    5    0    2   22   16   -0.000098   -0.000000
    5    0    2    1   17   -0.000012    0.000000
    5    0    2    2   17   -0.000000    0.000000
    5    0    2    3   17   -0.000000    0.000000
    5    0    2    4   17    0.000016    0.000000
    5    0    2    5   17   -0.000000   -0.000000
    5    0    2    6   17   -0.000053   -0.000001
    5    0    2    7   17    0.000000   -0.000000
    5    0    2    8   17    0.000041   -0.000003
    5    0    2    9   17    0.000024    0.000000
    5    0    2   10   17   -0.000000    0.000000
    5    0    2   11   17   -0.000013   -0.000000
    5    0    2   12   17   -0.000000   -0.000000
    5    0    2   13   17    0.000045    0.000000
    5    0    2   14   17    0.000104    0.000001
    5    0    2   15   17    0.000000    0.000000
    5    0    2   16   17   -0.000031    0.000002
    5    0    2   17   17   -0.000084   -0.000040
    5    0    2   18   17    0.000000   -0.000000
    5    0    2   19   17    0.000075   -0.000000
    5    0    2   20   17    0.000028   -0.000000
    5    0    2   21   17    0.000000   -0.000000
    5    0    2   22   17    0.000004   -0.000000
    5    0    2    1   18    0.000000    0.000000
    5    0    2    2   18   -0.000043    0.000000
    5    0    2    3   18    0.000000    0.000000
    5    0    2    4   18   -0.000000   -0.000000
    5    0    2    5   18   -0.000026   -0.000000
    5    0    2    6   18    0.000000   -0.000000
    5    0    2    7   18   -0.000114   -0.000000
    5    0    2    8   18    0.000000    0.000000
    5    0    2    9   18    0.000000    0.000000
    5    0    2   10   18    0.000291    0.000001
    5    0    2   11   18    0.000000   -0.000000
    5    0    2   12   18    0.000028   -0.000000
    5    0    2   13   18    0.000000    0.000000
    5    0    2   14   18   -0.000000    0.000000
    5    0    2   15   18   -0.000055    0.000000
    5    0    2   16   18    0.000000   -0.000000
    5    0    2   17   18   -0.000000    0.000000
    5    0    2   18   18    0.000393   -0.000038
    5    0    2   19   18    0.000000   -0.000000
    5    0    2   20   18   -0.000000    0.000000
    5    0    2   21   18    0.000394    0.000000
    5    0    2   22   18    0.000000    0.000000
    5    0    2    1   19    0.000111   -0.000000
    5    0    2    2   19    0.000000    0.000000
    5    0    2    3   19   -0.000032    0.000000
    5    0    2    4   19   -0.000113   -0.000001
    5    0    2    5   19   -0.000000   -0.000000
    5    0    2    6   19    0.000244   -0.000002
    5    0    2    7   19    0.000000    0.000000
    5    0    2    8   19   -0.000107    0.000001
    5    0    2    9   19   -0.000530   -0.000002
    5    0    2   10   19   -0.000000   -0.000000
    5    0    2   11   19    0.000036    0.000000
    5    0    2   12   19   -0.000000    0.000000
    5    0    2   13   19   -0.000097    0.000000
    5    0    2   14   19   -0.000136   -0.000001
    5    0    2   15   19   -0.000000    0.000000
    5    0    2   16   19    0.000178   -0.000000
    5    0    2   17   19   -0.000128   -0.000001
    5    0    2   18   19    0.000000    0.000000
    5    0    2   19   19   -0.000137   -0.000033
    5    0    2   20   19    0.000004   -0.000000
    5    0    2   21   19    0.000000   -0.000000
    5    0    2   22   19    0.000158   -0.000000
    5    0    2    1   20   -0.000130   -0.000004
    5    0    2    2   20    0.000000   -0.000000
    5    0    2    3   20   -0.000040   -0.000005
    5    0    2    4   20    0.000057    0.000002
    5    0    2    5   20   -0.000000    0.000000
    5    0    2    6   20   -0.000045    0.000000
    5    0    2    7   20   -0.000000   -0.000000
    5    0    2    8   20   -0.000023    0.000000
    5    0    2    9   20   -0.000014   -0.000000
    5    0    2   10   20    0.000000   -0.000000
    5    0    2   11   20    0.000097   -0.000001
    5    0    2   12   20    0.000000   -0.000000
    5    0    2   13   20    0.000155   -0.000001
    5    0    2   14   20    0.000021    0.000000
    5    0    2   15   20    0.000000   -0.000000
    5    0    2   16   20   -0.000002    0.000000
    5    0    2   17   20    0.000047   -0.000000
    5    0    2   18   20   -0.000000    0.000000
    5    0    2   19   20    0.000004   -0.000000
    5    0    2   20   20    0.000060    0.000040
    5    0    2   21   20    0.000000   -0.000000
    5    0    2   22   20   -0.000125    0.000001
    5    0    2    1   21    0.000000   -0.000000
    5    0    2    2   21    0.000140    0.000004
    5    0    2    3   21   -0.000000   -0.000000
    5    0    2    4   21   -0.000000    0.000000
    5    0    2    5   21   -0.000040   -0.000005
    5    0    2    6   21   -0.000000   -0.000000
    5    0    2    7   21   -0.000001    0.000000
    5    0    2    8   21   -0.000000    0.000000
    5    0    2    9   21   -0.000000   -0.000000
    5    0    2   10   21    0.000003   -0.000000
    5    0    2   11   21   -0.000000   -0.000000
    5    0    2   12   21   -0.000041   -0.000001
    5    0    2   13   21   -0.000000    0.000000
    5    0    2   14   21   -0.000000    0.000000
    5    0    2   15   21    0.000021    0.000000
    5    0    2   16   21    0.000000   -0.000000
    5    0    2   17   21    0.000000   -0.000000
    5    0    2   18   21    0.000047   -0.000000
    5    0    2   19   21    0.000000   -0.000000
    5    0    2   20   21    0.000000    0.000000
    5    0    2   21   21    0.000536    0.000038
    5    0    2   22   21   -0.000000   -0.000000
    5    0    2    1   22   -0.000000   -0.000003
    5    0    2    2   22   -0.000000    0.000000
    5    0    2    3   22   -0.000001   -0.000000
    5    0    2    4   22    0.000017   -0.000007
    5    0    2    5   22    0.000000   -0.000000
    5    0    2    6   22    0.000030   -0.000000
    5    0    2    7   22    0.000000    0.000000
    5    0    2    8   22   -0.000003    0.000000
    5    0    2    9   22   -0.000088   -0.000001
    5    0    2   10   22   -0.000000   -0.000000
    5    0    2   11   22    0.000009    0.000002
    5    0    2   12   22    0.000000   -0.000000
    5    0    2   13   22    0.000116    0.000000
    5    0    2   14   22    0.000003   -0.000000
    5    0    2   15   22   -0.000000   -0.000000
    5    0    2   16   22    0.000037   -0.000002
    5    0    2   17   22    0.000004   -0.000000
    5    0    2   18   22    0.000000    0.000000
    5    0    2   19   22   -0.000054    0.000000
    5    0    2   20   22    0.000076    0.000000
    5    0    2   21   22   -0.000000    0.000000
    5    0    2   22   22   -0.000018    0.000033
