 
             +---------------------------------------------------+
             |                                                   |
             |                   WANNIER90                       |
             |                                                   |
             +---------------------------------------------------+
             |                                                   |
             |        Welcome to the Maximally-Localized         |
             |        Generalized Wannier Functions code         |
             |            http://www.wannier.org                 |
             |                                                   |
             |  Wannier90 v2.x Authors:                          |
             |    Arash A. Mostofi  (Imperial College London)    |
             |    Giovanni Pizzi    (EPFL)                       |
             |    Ivo Souza         (Universidad del Pais Vasco) |
             |    Jonathan R. Yates (University of Oxford)       |
             |                                                   |
             |  Wannier90 Contributors:                          |
             |    Young-Su Lee       (KIST, S. Korea)            |
             |    Matthew Shelley    (Imperial College London)   |
             |    Nicolas Poilvert   (Penn State University)     |
             |    Raffaello Bianco   (Paris 6 and CNRS)          |
             |    Gabriele Sclauzero (ETH Zurich)                |
             |    David Strubbe (MIT, USA)                       |
             |    Rei Sakuma (Lund University, Sweden)           |
             |    Yusuke Nomura (U. Tokyo, Japan)                |
             |    Takashi Koretsune (Riken, Japan)               |
             |    Yoshiro Nohara (ASMS Co. Ltd., Japan)          |
             |    Ryotaro Arita (Riken, Japan)                   |
             |    Lorenzo Paulatto (UPMC Paris)                  |
             |    Florian Thole (ETH Zurich)                     |
             |    Pablo Garcia Fernandez (Unican, Spain)         |
             |    Dominik Gresch (ETH Zurich)                    |
             |    Samuel Ponce (University of Oxford)            |
             |    Marco Gibertini (EPFL)                         |
             |    Christian Stieger (ETHZ, CH)                   |
             |    Stepan Tsirkin (Universidad del Pais Vasco)    |
             |                                                   |
             |  Wannier77 Authors:                               |
             |    Nicola Marzari    (EPFL)                       |
             |    Ivo Souza         (Universidad del Pais Vasco) |
             |    David Vanderbilt  (Rutgers University)         |
             |                                                   |
             |  Please cite                                      |
             |                                                   |
             |  [ref] "An updated version of Wannier90:          |
             |        A Tool for Obtaining Maximally Localised   |
             |        Wannier Functions", A. A. Mostofi,         |
             |        J. R. Yates, G. Pizzi, Y. S. Lee,          |
             |        I. Souza, D. Vanderbilt and N. Marzari,    |
             |        Comput. Phys. Commun. 185, 2309 (2014)     |
             |        http://dx.doi.org/10.1016/j.cpc.2014.05.003|
             |                                                   |
             |  in any publications arising from the use of      |
             |  this code. For the method please cite            |
             |                                                   |
             |  [ref] "Maximally Localized Generalised Wannier   |
             |         Functions for Composite Energy Bands"     |
             |         N. Marzari and D. Vanderbilt              |
             |         Phys. Rev. B 56 12847 (1997)              |
             |                                                   |
             |  [ref] "Maximally Localized Wannier Functions     |
             |         for Entangled Energy Bands"               |
             |         I. Souza, N. Marzari and D. Vanderbilt    |
             |         Phys. Rev. B 65 035109 (2001)             |
             |                                                   |
             |                                                   |
             | Copyright (c) 1996-2017                           |
             |        Arash A. Mostofi, Jonathan R. Yates,       |
             |        Young-Su Lee, Giovanni Pizzi, Ivo Souza,   |
             |        David Vanderbilt and Nicola Marzari        |
             |                                                   |
             |        Release: 2.1.0   13th January 2017         |
             |                                                   |
             | This program is free software; you can            |
             | redistribute it and/or modify it under the terms  |
             | of the GNU General Public License as published by |
             | the Free Software Foundation; either version 2 of |
             | the License, or (at your option) any later version|
             |                                                   |
             | This program is distributed in the hope that it   |
             | will be useful, but WITHOUT ANY WARRANTY; without |
             | even the implied warranty of MERCHANTABILITY or   |
             | FITNESS FOR A PARTICULAR PURPOSE. See the GNU     |
             | General Public License for more details.          |
             |                                                   |
             | You should have received a copy of the GNU General|
             | Public License along with this program; if not,   |
             | write to the Free Software Foundation, Inc.,      |
             | 675 Mass Ave, Cambridge, MA 02139, USA.           |
             |                                                   |
             +---------------------------------------------------+
             |    Execution started on 20Aug2017 at 05:10:43     |
             +---------------------------------------------------+
 
 ******************************************************************************
 * -> Using CODATA 2006 constant values                                       *
 *    (http://physics.nist.gov/cuu/Constants/index.html)                      *
 * -> Using Bohr value from CODATA                                            *
 ******************************************************************************
 
 
                                    ------
                                    SYSTEM
                                    ------
 
                              Lattice Vectors (Ang)
                    a_1     2.187134  -3.735198   0.000000
                    a_2     2.187134   3.735198   0.000000
                    a_3     0.000000   0.000000  13.941770
 
                   Unit Cell Volume:     227.79115  (Ang^3)
 
                        Reciprocal-Space Vectors (Ang^-1)
                    b_1     1.436397  -0.841078   0.000000
                    b_2     1.436397   0.841078   0.000000
                    b_3     0.000000   0.000000   0.450673
  
 *----------------------------------------------------------------------------*
 |   Site       Fractional Coordinate          Cartesian Coordinate (Ang)     |
 +----------------------------------------------------------------------------+
 | As   1   0.34531   0.68141   0.46807   |    2.24557   1.25540   6.52576    |
 | In   1   0.68036   0.34636   0.52357   |    2.24557  -1.24753   7.29944    |
 | H    1   0.34604   0.68068   0.35768   |    2.24557   1.24992   4.98668    |
 | H    1   0.68173   0.34499   0.65068   |    2.24557  -1.25779   9.07165    |
 *----------------------------------------------------------------------------*
  
                                ------------
                                K-POINT GRID
                                ------------
  
             Grid size =  8 x  8 x  1      Total points =   64
  
  
 *---------------------------------- MAIN ------------------------------------*
 |  Number of Wannier Functions               :                10             |
 |  Number of input Bloch states              :                16             |
 |  Output verbosity (1=low, 5=high)          :                 1             |
 |  Timing Level (1=low, 5=high)              :                 1             |
 |  Optimisation (0=memory, 3=speed)          :                 3             |
 |  Length Unit                               :               Ang             |
 |  Post-processing setup (write *.nnkp)      :                 F             |
 |  Using Gamma-only branch of algorithms     :                 F             |
 *----------------------------------------------------------------------------*
 *------------------------------- WANNIERISE ---------------------------------*
 |  Total number of iterations                :              3000             |
 |  Number of CG steps before reset           :                 5             |
 |  Trial step length for line search         :             0.100             |
 |  Convergence tolerence                     :         0.100E-09             |
 |  Convergence window                        :                -1             |
 |  Iterations between writing output         :                 1             |
 |  Iterations between backing up to disk     :               100             |
 |  Write r^2_nm to file                      :                 F             |
 |  Write xyz WF centres to file              :                 F             |
 |  Write on-site energies <0n|H|0n> to file  :                 F             |
 |  Use guiding centre to control phases      :                 T             |
 |  Use phases for initial projections        :                 F             |
 |  Iterations before starting guiding centres:                 0             |
 |  Iterations between using guiding centres  :                 1             |
 *----------------------------------------------------------------------------*
 *------------------------------- DISENTANGLE --------------------------------*
 |  Using band disentanglement                :                 T             |
 |  Total number of iterations                :              3000             |
 |  Mixing ratio                              :             0.900             |
 |  Convergence tolerence                     :         1.000E-10             |
 |  Convergence window                        :                 3             |
 *----------------------------------------------------------------------------*
 *-------------------------------- PLOTTING ----------------------------------*
 |  Plotting interpolated bandstructure       :                 T             |
 |   Number of K-path sections                :                 3             |
 |   Divisions along first K-path section     :               100             |
 |   Output format                            :           gnuplot             |
 |   Output mode                              :               s-k             |
 *----------------------------------------------------------------------------*
 |   K-space path sections:                                                   |
 |    From:  M    0.500  0.000  0.000     To:  K    0.333  0.333  0.000       |
 |    From:  K    0.333  0.333  0.000     To:  G    0.000  0.000  0.000       |
 |    From:  G    0.000  0.000  0.000     To:  M    0.500  0.000  0.000       |
 *----------------------------------------------------------------------------*
 |  Plotting Hamiltonian in WF basis          :                 T             |
 *----------------------------------------------------------------------------*
 Time to read parameters        0.013 (sec)

 *---------------------------------- K-MESH ----------------------------------*
 +----------------------------------------------------------------------------+
 |                    Distance to Nearest-Neighbour Shells                    |
 |                    ------------------------------------                    |
 |          Shell             Distance (Ang^-1)          Multiplicity         |
 |          -----             -----------------          ------------         |
 |             1                   0.208066                      4            |
 |             2                   0.210270                      2            |
 |             3                   0.359099                      2            |
 |             4                   0.362930                      4            |
 |             5                   0.416132                      4            |
 |             6                   0.420539                      2            |
 |             7                   0.450673                      2            |
 |             8                   0.496385                      8            |
 |             9                   0.497313                      4            |
 |            10                   0.548813                      4            |
 |            11                   0.552997                      4            |
 |            12                   0.555492                      4            |
 +----------------------------------------------------------------------------+
 | The b-vectors are chosen automatically                                     |
 | SVD found small singular value, Rejecting this shell and trying the next   |
 | SVD found small singular value, Rejecting this shell and trying the next   |
 | The following shells are used:   1,  2,  7                                 |
 +----------------------------------------------------------------------------+
 |                        Shell   # Nearest-Neighbours                        |
 |                        -----   --------------------                        |
 |                          1               4                                 |
 |                          2               2                                 |
 |                          7               2                                 |
 +----------------------------------------------------------------------------+
 | Completeness relation is fully satisfied [Eq. (B1), PRB 56, 12847 (1997)]  |
 +----------------------------------------------------------------------------+
 |                  b_k Vectors (Ang^-1) and Weights (Ang^2)                  |
 |                  ----------------------------------------                  |
 |            No.         b_k(x)      b_k(y)      b_k(z)        w_b           |
 |            ---        --------------------------------     --------        |
 |             1         0.179550   -0.105135    0.000000     7.754806        |
 |             2        -0.179550   -0.105135    0.000000     7.754806        |
 |             3        -0.179550    0.105135    0.000000     7.754806        |
 |             4         0.179550    0.105135    0.000000     7.754806        |
 |             5         0.000000    0.210270    0.000000     7.431421        |
 |             6         0.000000   -0.210270    0.000000     7.431421        |
 |             7         0.000000    0.000000    0.450673     2.461762        |
 |             8         0.000000    0.000000   -0.450673     2.461762        |
 +----------------------------------------------------------------------------+
 |                           b_k Directions (Ang^-1)                          |
 |                           -----------------------                          |
 |            No.           x           y           z                         |
 |            ---        --------------------------------                     |
 |             1         0.179550   -0.105135    0.000000                     |
 |             2        -0.179550   -0.105135    0.000000                     |
 |             3         0.000000    0.210270    0.000000                     |
 |             4         0.000000    0.000000    0.450673                     |
 +----------------------------------------------------------------------------+
  
 *============================================================================*
 |                              MEMORY ESTIMATE                               |
 |         Maximum RAM allocated during each phase of the calculation         |
 *============================================================================*
 |                        Disentanglement            3.24 Mb                  |
 |                            Wannierise:            2.35 Mb                  |
 |                          plot_wannier:            2.35 Mb                  |
 *----------------------------------------------------------------------------*
  
 Starting a new Wannier90 calculation ...

 Time to get kmesh              0.017 (sec)

 Reading overlaps from wannier90.mmn    : File generated by VASP: InAs_mono

 Reading projections from wannier90.amn : File generated by VASP: InAs_mono

 Time to read overlaps          0.085 (sec)

 *------------------------------- DISENTANGLE --------------------------------*
 +----------------------------------------------------------------------------+
 |                              Energy  Windows                               |
 |                              ---------------                               |
 |                   Outer:  -17.10000  to   10.00000  (eV)                   |
 |                   Inner:  -17.10000  to    2.00000  (eV)                   |
 +----------------------------------------------------------------------------+
   Number of target bands to extract:   10

                   Unitarised projection of Wannier functions                  
                   ------------------------------------------                  
   A_mn = <psi_m|g_n> --> S = A.A^+ --> U = S^-1/2.A
   In dis_project... done
   Using an inner window (linner = T)
   In dis_proj_froz... done

                   Extraction of optimally-connected subspace                  
                   ------------------------------------------                  
 +---------------------------------------------------------------------+<-- DIS
 |  Iter     Omega_I(i-1)      Omega_I(i)      Delta (frac.)    Time   |<-- DIS
 +---------------------------------------------------------------------+<-- DIS
       1      32.32350106      29.71571849       8.776E-02      0.12    <-- DIS
       2      29.60391163      28.86956425       2.544E-02      0.13    <-- DIS
       3      28.80008668      28.43685859       1.277E-02      0.13    <-- DIS
       4      28.38382291      28.15457557       8.142E-03      0.14    <-- DIS
       5      28.11506784      27.94724701       6.005E-03      0.14    <-- DIS
       6      27.91671186      27.78425244       4.767E-03      0.15    <-- DIS
       7      27.75994532      27.65083961       3.946E-03      0.15    <-- DIS
       8      27.63105704      27.53897932       3.344E-03      0.16    <-- DIS
       9      27.52264523      27.44383616       2.872E-03      0.16    <-- DIS
      10      27.43022511      27.36222833       2.485E-03      0.17    <-- DIS
      11      27.35082480      27.29189493       2.159E-03      0.17    <-- DIS
      12      27.28231401      27.23112435       1.880E-03      0.17    <-- DIS
      13      27.22306697      27.17855595       1.638E-03      0.18    <-- DIS
      14      27.17178229      27.13306930       1.427E-03      0.18    <-- DIS
      15      27.12738249      27.09371937       1.242E-03      0.19    <-- DIS
      16      27.08895511      27.05969671       1.081E-03      0.19    <-- DIS
      17      27.05571633      27.03030135       9.402E-04      0.20    <-- DIS
      18      27.02698699      27.00492474       8.170E-04      0.20    <-- DIS
      19      27.00217576      26.98303626       7.093E-04      0.21    <-- DIS
      20      26.98076659      26.96417272       6.154E-04      0.21    <-- DIS
      21      26.96230867      26.94792981       5.336E-04      0.21    <-- DIS
      22      26.94640830      26.93395476       4.624E-04      0.22    <-- DIS
      23      26.93272185      26.92194014       4.005E-04      0.22    <-- DIS
      24      26.92094975      26.91161831       3.467E-04      0.23    <-- DIS
      25      26.91083115      26.90275667       3.001E-04      0.23    <-- DIS
      26      26.90213928      26.89515326       2.598E-04      0.24    <-- DIS
      27      26.89467722      26.88863307       2.248E-04      0.24    <-- DIS
      28      26.88827426      26.88304459       1.945E-04      0.24    <-- DIS
      29      26.88278259      26.87825687       1.684E-04      0.25    <-- DIS
      30      26.87807443      26.87415682       1.458E-04      0.25    <-- DIS
      31      26.87403942      26.87064696       1.263E-04      0.26    <-- DIS
      32      26.87058237      26.86764330       1.094E-04      0.26    <-- DIS
      33      26.86762125      26.86507356       9.483E-05      0.27    <-- DIS
      34      26.86508548      26.86287560       8.226E-05      0.27    <-- DIS
      35      26.86291431      26.86099605       7.141E-05      0.28    <-- DIS
      36      26.86105559      26.85938907       6.205E-05      0.28    <-- DIS
      37      26.85946451      26.85801536       5.396E-05      0.28    <-- DIS
      38      26.85810261      26.85684122       4.697E-05      0.29    <-- DIS
      39      26.85693692      26.85583778       4.093E-05      0.29    <-- DIS
      40      26.85593918      26.85498029       3.571E-05      0.30    <-- DIS
      41      26.85508516      26.85424759       3.119E-05      0.30    <-- DIS
      42      26.85435411      26.85362155       2.728E-05      0.31    <-- DIS
      43      26.85372828      26.85308668       2.389E-05      0.31    <-- DIS
      44      26.85319247      26.85262971       2.096E-05      0.32    <-- DIS
      45      26.85273365      26.85223930       1.841E-05      0.32    <-- DIS
      46      26.85234071      26.85190576       1.620E-05      0.33    <-- DIS
      47      26.85200411      26.85162081       1.427E-05      0.33    <-- DIS
      48      26.85171572      26.85137737       1.260E-05      0.33    <-- DIS
      49      26.85146858      26.85116939       1.114E-05      0.34    <-- DIS
      50      26.85125672      26.85099170       9.870E-06      0.34    <-- DIS
      51      26.85107505      26.85083988       8.758E-06      0.35    <-- DIS
      52      26.85091922      26.85071016       7.786E-06      0.35    <-- DIS
      53      26.85078550      26.85059932       6.934E-06      0.36    <-- DIS
      54      26.85067072      26.85050461       6.186E-06      0.36    <-- DIS
      55      26.85057215      26.85042368       5.530E-06      0.37    <-- DIS
      56      26.85048746      26.85035451       4.951E-06      0.37    <-- DIS
      57      26.85041466      26.85029540       4.442E-06      0.37    <-- DIS
      58      26.85035205      26.85024488       3.991E-06      0.38    <-- DIS
      59      26.85029817      26.85020170       3.593E-06      0.38    <-- DIS
      60      26.85025178      26.85016478       3.240E-06      0.39    <-- DIS
      61      26.85021181      26.85013323       2.927E-06      0.39    <-- DIS
      62      26.85017735      26.85010625       2.648E-06      0.40    <-- DIS
      63      26.85014761      26.85008318       2.400E-06      0.40    <-- DIS
      64      26.85012193      26.85006346       2.178E-06      0.41    <-- DIS
      65      26.85009974      26.85004659       1.979E-06      0.41    <-- DIS
      66      26.85008054      26.85003216       1.802E-06      0.41    <-- DIS
      67      26.85006392      26.85001982       1.642E-06      0.42    <-- DIS
      68      26.85004951      26.85000927       1.499E-06      0.42    <-- DIS
      69      26.85003701      26.85000024       1.370E-06      0.43    <-- DIS
      70      26.85002616      26.84999251       1.253E-06      0.43    <-- DIS
      71      26.85001672      26.84998590       1.148E-06      0.44    <-- DIS
      72      26.85000851      26.84998025       1.052E-06      0.44    <-- DIS
      73      26.85000134      26.84997541       9.660E-07      0.45    <-- DIS
      74      26.84999509      26.84997126       8.875E-07      0.45    <-- DIS
      75      26.84998963      26.84996772       8.161E-07      0.45    <-- DIS
      76      26.84998485      26.84996468       7.511E-07      0.46    <-- DIS
      77      26.84998066      26.84996208       6.919E-07      0.46    <-- DIS
      78      26.84997698      26.84995985       6.378E-07      0.47    <-- DIS
      79      26.84997374      26.84995795       5.883E-07      0.47    <-- DIS
      80      26.84997089      26.84995631       5.431E-07      0.48    <-- DIS
      81      26.84996838      26.84995491       5.016E-07      0.48    <-- DIS
      82      26.84996616      26.84995371       4.636E-07      0.49    <-- DIS
      83      26.84996420      26.84995269       4.286E-07      0.49    <-- DIS
      84      26.84996245      26.84995181       3.966E-07      0.49    <-- DIS
      85      26.84996091      26.84995105       3.670E-07      0.50    <-- DIS
      86      26.84995953      26.84995040       3.399E-07      0.50    <-- DIS
      87      26.84995830      26.84994985       3.148E-07      0.51    <-- DIS
      88      26.84995721      26.84994937       2.918E-07      0.51    <-- DIS
      89      26.84995623      26.84994897       2.705E-07      0.52    <-- DIS
      90      26.84995535      26.84994862       2.508E-07      0.52    <-- DIS
      91      26.84995456      26.84994832       2.327E-07      0.53    <-- DIS
      92      26.84995385      26.84994806       2.159E-07      0.53    <-- DIS
      93      26.84995322      26.84994784       2.004E-07      0.54    <-- DIS
      94      26.84995264      26.84994765       1.860E-07      0.54    <-- DIS
      95      26.84995212      26.84994748       1.727E-07      0.54    <-- DIS
      96      26.84995165      26.84994734       1.604E-07      0.55    <-- DIS
      97      26.84995123      26.84994722       1.490E-07      0.55    <-- DIS
      98      26.84995084      26.84994712       1.385E-07      0.56    <-- DIS
      99      26.84995049      26.84994703       1.287E-07      0.56    <-- DIS
     100      26.84995017      26.84994696       1.196E-07      0.57    <-- DIS
     101      26.84994987      26.84994689       1.112E-07      0.57    <-- DIS
     102      26.84994961      26.84994683       1.034E-07      0.58    <-- DIS
     103      26.84994937      26.84994678       9.611E-08      0.58    <-- DIS
     104      26.84994914      26.84994674       8.938E-08      0.58    <-- DIS
     105      26.84994894      26.84994671       8.312E-08      0.59    <-- DIS
     106      26.84994875      26.84994668       7.732E-08      0.59    <-- DIS
     107      26.84994858      26.84994665       7.193E-08      0.60    <-- DIS
     108      26.84994842      26.84994663       6.692E-08      0.60    <-- DIS
     109      26.84994828      26.84994661       6.226E-08      0.61    <-- DIS
     110      26.84994815      26.84994659       5.794E-08      0.61    <-- DIS
     111      26.84994802      26.84994658       5.391E-08      0.62    <-- DIS
     112      26.84994791      26.84994656       5.018E-08      0.62    <-- DIS
     113      26.84994781      26.84994655       4.670E-08      0.62    <-- DIS
     114      26.84994771      26.84994654       4.347E-08      0.63    <-- DIS
     115      26.84994762      26.84994653       4.046E-08      0.63    <-- DIS
     116      26.84994754      26.84994653       3.767E-08      0.64    <-- DIS
     117      26.84994746      26.84994652       3.507E-08      0.64    <-- DIS
     118      26.84994739      26.84994652       3.265E-08      0.65    <-- DIS
     119      26.84994733      26.84994651       3.040E-08      0.65    <-- DIS
     120      26.84994727      26.84994651       2.831E-08      0.65    <-- DIS
     121      26.84994721      26.84994650       2.636E-08      0.66    <-- DIS
     122      26.84994716      26.84994650       2.455E-08      0.66    <-- DIS
     123      26.84994711      26.84994650       2.286E-08      0.67    <-- DIS
     124      26.84994707      26.84994650       2.129E-08      0.67    <-- DIS
     125      26.84994703      26.84994649       1.983E-08      0.68    <-- DIS
     126      26.84994699      26.84994649       1.847E-08      0.68    <-- DIS
     127      26.84994695      26.84994649       1.721E-08      0.69    <-- DIS
     128      26.84994692      26.84994649       1.603E-08      0.69    <-- DIS
     129      26.84994689      26.84994649       1.494E-08      0.69    <-- DIS
     130      26.84994686      26.84994649       1.391E-08      0.70    <-- DIS
     131      26.84994684      26.84994649       1.296E-08      0.70    <-- DIS
     132      26.84994681      26.84994649       1.208E-08      0.71    <-- DIS
     133      26.84994679      26.84994649       1.126E-08      0.71    <-- DIS
     134      26.84994677      26.84994649       1.049E-08      0.72    <-- DIS
     135      26.84994675      26.84994648       9.774E-09      0.72    <-- DIS
     136      26.84994673      26.84994648       9.109E-09      0.73    <-- DIS
     137      26.84994671      26.84994648       8.489E-09      0.73    <-- DIS
     138      26.84994670      26.84994648       7.912E-09      0.74    <-- DIS
     139      26.84994668      26.84994648       7.375E-09      0.74    <-- DIS
     140      26.84994667      26.84994648       6.874E-09      0.74    <-- DIS
     141      26.84994666      26.84994648       6.408E-09      0.75    <-- DIS
     142      26.84994664      26.84994648       5.973E-09      0.75    <-- DIS
     143      26.84994663      26.84994648       5.569E-09      0.76    <-- DIS
     144      26.84994662      26.84994648       5.192E-09      0.76    <-- DIS
     145      26.84994661      26.84994648       4.841E-09      0.77    <-- DIS
     146      26.84994660      26.84994648       4.514E-09      0.77    <-- DIS
     147      26.84994660      26.84994648       4.209E-09      0.78    <-- DIS
     148      26.84994659      26.84994648       3.925E-09      0.78    <-- DIS
     149      26.84994658      26.84994648       3.660E-09      0.78    <-- DIS
     150      26.84994657      26.84994648       3.414E-09      0.79    <-- DIS
     151      26.84994657      26.84994648       3.184E-09      0.79    <-- DIS
     152      26.84994656      26.84994648       2.970E-09      0.80    <-- DIS
     153      26.84994656      26.84994648       2.770E-09      0.80    <-- DIS
     154      26.84994655      26.84994648       2.584E-09      0.81    <-- DIS
     155      26.84994655      26.84994648       2.411E-09      0.81    <-- DIS
     156      26.84994654      26.84994648       2.249E-09      0.82    <-- DIS
     157      26.84994654      26.84994648       2.099E-09      0.82    <-- DIS
     158      26.84994653      26.84994648       1.958E-09      0.82    <-- DIS
     159      26.84994653      26.84994648       1.828E-09      0.83    <-- DIS
     160      26.84994653      26.84994648       1.705E-09      0.83    <-- DIS
     161      26.84994652      26.84994648       1.592E-09      0.84    <-- DIS
     162      26.84994652      26.84994648       1.486E-09      0.84    <-- DIS
     163      26.84994652      26.84994648       1.387E-09      0.85    <-- DIS
     164      26.84994652      26.84994648       1.294E-09      0.85    <-- DIS
     165      26.84994651      26.84994648       1.208E-09      0.86    <-- DIS
     166      26.84994651      26.84994648       1.128E-09      0.86    <-- DIS
     167      26.84994651      26.84994648       1.053E-09      0.86    <-- DIS
     168      26.84994651      26.84994648       9.836E-10      0.87    <-- DIS
     169      26.84994651      26.84994648       9.185E-10      0.87    <-- DIS
     170      26.84994650      26.84994648       8.578E-10      0.88    <-- DIS
     171      26.84994650      26.84994648       8.011E-10      0.88    <-- DIS
     172      26.84994650      26.84994648       7.483E-10      0.89    <-- DIS
     173      26.84994650      26.84994648       6.990E-10      0.89    <-- DIS
     174      26.84994650      26.84994648       6.530E-10      0.90    <-- DIS
     175      26.84994650      26.84994648       6.101E-10      0.90    <-- DIS
     176      26.84994650      26.84994648       5.700E-10      0.90    <-- DIS
     177      26.84994650      26.84994648       5.326E-10      0.91    <-- DIS
     178      26.84994650      26.84994648       4.977E-10      0.91    <-- DIS
     179      26.84994649      26.84994648       4.652E-10      0.92    <-- DIS
     180      26.84994649      26.84994648       4.348E-10      0.92    <-- DIS
     181      26.84994649      26.84994648       4.064E-10      0.93    <-- DIS
     182      26.84994649      26.84994648       3.799E-10      0.93    <-- DIS
     183      26.84994649      26.84994648       3.552E-10      0.94    <-- DIS
     184      26.84994649      26.84994648       3.321E-10      0.94    <-- DIS
     185      26.84994649      26.84994648       3.105E-10      0.95    <-- DIS
     186      26.84994649      26.84994648       2.904E-10      0.95    <-- DIS
     187      26.84994649      26.84994648       2.716E-10      0.95    <-- DIS
     188      26.84994649      26.84994648       2.540E-10      0.96    <-- DIS
     189      26.84994649      26.84994648       2.376E-10      0.96    <-- DIS
     190      26.84994649      26.84994648       2.223E-10      0.97    <-- DIS
     191      26.84994649      26.84994648       2.080E-10      0.97    <-- DIS
     192      26.84994649      26.84994648       1.946E-10      0.98    <-- DIS
     193      26.84994649      26.84994648       1.821E-10      0.98    <-- DIS
     194      26.84994649      26.84994648       1.704E-10      0.99    <-- DIS
     195      26.84994649      26.84994648       1.595E-10      0.99    <-- DIS
     196      26.84994649      26.84994648       1.493E-10      0.99    <-- DIS
     197      26.84994649      26.84994648       1.398E-10      1.00    <-- DIS
     198      26.84994649      26.84994648       1.309E-10      1.00    <-- DIS
     199      26.84994648      26.84994648       1.225E-10      1.01    <-- DIS
     200      26.84994648      26.84994648       1.147E-10      1.01    <-- DIS
     201      26.84994648      26.84994648       1.075E-10      1.02    <-- DIS
     202      26.84994648      26.84994648       1.007E-10      1.02    <-- DIS
     203      26.84994648      26.84994648       9.428E-11      1.03    <-- DIS
     204      26.84994648      26.84994648       8.833E-11      1.03    <-- DIS
     205      26.84994648      26.84994648       8.276E-11      1.03    <-- DIS

             <<<      Delta < 1.000E-10  over  3 iterations     >>>
             <<< Disentanglement convergence criteria satisfied >>>

        Final Omega_I    26.84994648 (Ang^2)

 +----------------------------------------------------------------------------+

 Time to disentangle bands      0.926 (sec)

 Writing checkpoint file wannier90.chk... done

 
 *------------------------------- WANNIERISE ---------------------------------*
 +--------------------------------------------------------------------+<-- CONV
 | Iter  Delta Spread     RMS Gradient      Spread (Ang^2)      Time  |<-- CONV
 +--------------------------------------------------------------------+<-- CONV
 
 ------------------------------------------------------------------------------
 Initial State
  WF centre and spread    1  (  2.476110,  1.514228,  6.771950 )     2.70618988
  WF centre and spread    2  (  2.609749,  0.927630,  6.205879 )     2.74030408
  WF centre and spread    3  (  1.940040,  1.584565,  6.203435 )     2.76949219
  WF centre and spread    4  (  1.957139,  0.993540,  6.777527 )     2.72470974
  WF centre and spread    5  (  2.849541, -0.743022,  7.445569 )     5.02374498
  WF centre and spread    6  (  2.369001, -1.465232,  6.993180 )     5.04458767
  WF centre and spread    7  (  1.984698, -1.050670,  6.981809 )     5.12884060
  WF centre and spread    8  (  1.777467, -1.774724,  7.437546 )     5.11199992
  WF centre and spread    9  (  2.245572,  1.248515,  4.373587 )     4.26237267
  WF centre and spread   10  (  2.245572, -1.255853,  8.848877 )     3.28927578
  Sum of centres and spreads ( 22.454889, -0.021023, 68.039360 )    38.80151750
 
      0     0.388E+02     0.0000000000       38.8015174991       1.04  <-- CONV
        O_D=      0.4273416 O_OD=     11.5242294 O_TOT=     38.8015175 <-- SPRD
 ------------------------------------------------------------------------------
 Cycle:      1
  WF centre and spread    1  (  2.476675,  1.518002,  6.770739 )     2.55486951
  WF centre and spread    2  (  2.610390,  0.928776,  6.186709 )     2.56299372
  WF centre and spread    3  (  1.945524,  1.582445,  6.188538 )     2.62461426
  WF centre and spread    4  (  1.950654,  0.989517,  6.776275 )     2.59560798
  WF centre and spread    5  (  2.862793, -0.731707,  7.452004 )     4.85507935
  WF centre and spread    6  (  2.372476, -1.470726,  6.975826 )     4.94264649
  WF centre and spread    7  (  1.977576, -1.044397,  6.970308 )     5.00147639
  WF centre and spread    8  (  1.766748, -1.787555,  7.438125 )     4.97376324
  WF centre and spread    9  (  2.247628,  1.249636,  4.394988 )     4.10086026
  WF centre and spread   10  (  2.244705, -1.256320,  8.876171 )     2.88640673
  Sum of centres and spreads ( 22.455169, -0.022328, 68.029682 )    37.09831793
 
      1    -0.170E+01     2.1696625549       37.0983179328       1.05  <-- CONV
        O_D=      0.3528155 O_OD=      9.8955560 O_TOT=     37.0983179 <-- SPRD
 Delta: O_D= -0.7452616E-01 O_OD= -0.1628673E+01 O_TOT= -0.1703200E+01 <-- DLTA
 ------------------------------------------------------------------------------
 Cycle:      2
  WF centre and spread    1  (  2.477201,  1.521648,  6.769202 )     2.51828342
  WF centre and spread    2  (  2.612228,  0.928850,  6.167611 )     2.48905230
  WF centre and spread    3  (  1.950005,  1.581488,  6.173292 )     2.57761075
  WF centre and spread    4  (  1.945134,  0.985382,  6.774270 )     2.56008533
  WF centre and spread    5  (  2.874721, -0.722195,  7.455677 )     4.74303849
  WF centre and spread    6  (  2.375788, -1.475234,  6.951815 )     4.91613772
  WF centre and spread    7  (  1.970342, -1.036844,  6.955170 )     4.93676140
  WF centre and spread    8  (  1.756299, -1.800077,  7.434957 )     4.89747009
  WF centre and spread    9  (  2.249498,  1.250612,  4.428723 )     3.99191233
  WF centre and spread   10  (  2.244339, -1.256490,  8.908937 )     2.52972006
  Sum of centres and spreads ( 22.455554, -0.022860, 68.019653 )    36.16007190
 
      2    -0.938E+00     1.7842847475       36.1600718952       1.05  <-- CONV
        O_D=      0.3109392 O_OD=      8.9991862 O_TOT=     36.1600719 <-- SPRD
 Delta: O_D= -0.4187624E-01 O_OD= -0.8963698E+00 O_TOT= -0.9382460E+00 <-- DLTA
 ------------------------------------------------------------------------------
 Cycle:      3
  WF centre and spread    1  (  2.476864,  1.524161,  6.765040 )     2.51786291
  WF centre and spread    2  (  2.615539,  0.928501,  6.151085 )     2.46318565
  WF centre and spread    3  (  1.954046,  1.581246,  6.158764 )     2.56036859
  WF centre and spread    4  (  1.940163,  0.982133,  6.769630 )     2.55902709
  WF centre and spread    5  (  2.884730, -0.717280,  7.458432 )     4.68775302
  WF centre and spread    6  (  2.373960, -1.476554,  6.924561 )     4.89416769
  WF centre and spread    7  (  1.963449, -1.030908,  6.939363 )     4.88574846
  WF centre and spread    8  (  1.751514, -1.809199,  7.430670 )     4.87744307
  WF centre and spread    9  (  2.251320,  1.251866,  4.462463 )     3.94187609
  WF centre and spread   10  (  2.244611, -1.256704,  8.942917 )     2.26588192
  Sum of centres and spreads ( 22.456196, -0.022739, 68.002925 )    35.65331450
 
      3    -0.507E+00     1.1466403900       35.6533144960       1.06  <-- CONV
        O_D=      0.2764782 O_OD=      8.5268898 O_TOT=     35.6533145 <-- SPRD
 Delta: O_D= -0.3446103E-01 O_OD= -0.4722964E+00 O_TOT= -0.5067574E+00 <-- DLTA
 ------------------------------------------------------------------------------
 Cycle:      4
  WF centre and spread    1  (  2.477072,  1.526759,  6.759986 )     2.53922278
  WF centre and spread    2  (  2.618498,  0.928343,  6.139397 )     2.46724519
  WF centre and spread    3  (  1.957330,  1.581248,  6.147407 )     2.56316059
  WF centre and spread    4  (  1.935361,  0.978550,  6.764114 )     2.57633158
  WF centre and spread    5  (  2.893066, -0.716095,  7.461053 )     4.64982080
  WF centre and spread    6  (  2.368437, -1.475307,  6.895810 )     4.88469136
  WF centre and spread    7  (  1.957799, -1.026625,  6.925717 )     4.84909390
  WF centre and spread    8  (  1.751022, -1.815728,  7.425530 )     4.87261382
  WF centre and spread    9  (  2.253017,  1.252863,  4.492883 )     3.89734463
  WF centre and spread   10  (  2.245342, -1.256991,  8.970783 )     2.00983710
  Sum of centres and spreads ( 22.456944, -0.022983, 67.982679 )    35.30936173
 
      4    -0.344E+00     1.0114511533       35.3093617330       1.07  <-- CONV
        O_D=      0.2533552 O_OD=      8.2060601 O_TOT=     35.3093617 <-- SPRD
 Delta: O_D= -0.2312299E-01 O_OD= -0.3208298E+00 O_TOT= -0.3439528E+00 <-- DLTA
 ------------------------------------------------------------------------------
 Cycle:      5
  WF centre and spread    1  (  2.477647,  1.529246,  6.757080 )     2.57204923
  WF centre and spread    2  (  2.620365,  0.928446,  6.134474 )     2.48056149
  WF centre and spread    3  (  1.959409,  1.581318,  6.141852 )     2.57535731
  WF centre and spread    4  (  1.931351,  0.975233,  6.760396 )     2.60170408
  WF centre and spread    5  (  2.899949, -0.717261,  7.463529 )     4.62032316
  WF centre and spread    6  (  2.361569, -1.471873,  6.871464 )     4.89286729
  WF centre and spread    7  (  1.954100, -1.024381,  6.917775 )     4.83019561
  WF centre and spread    8  (  1.753277, -1.820315,  7.420880 )     4.86904619
  WF centre and spread    9  (  2.253726,  1.253454,  4.508809 )     3.85891812
  WF centre and spread   10  (  2.245937, -1.257148,  8.988045 )     1.82533930
  Sum of centres and spreads ( 22.457332, -0.023281, 67.964303 )    35.12636178
 
      5    -0.183E+00     0.7413694118       35.1263617803       1.07  <-- CONV
        O_D=      0.2386242 O_OD=      8.0377911 O_TOT=     35.1263618 <-- SPRD
 Delta: O_D= -0.1473100E-01 O_OD= -0.1682690E+00 O_TOT= -0.1830000E+00 <-- DLTA
 ------------------------------------------------------------------------------
 Cycle:      6
  WF centre and spread    1  (  2.478295,  1.531945,  6.755595 )     2.61497961
  WF centre and spread    2  (  2.621924,  0.929039,  6.132435 )     2.49499529
  WF centre and spread    3  (  1.961480,  1.581321,  6.138589 )     2.58909798
  WF centre and spread    4  (  1.927110,  0.971893,  6.757637 )     2.63243943
  WF centre and spread    5  (  2.907573, -0.720177,  7.466903 )     4.59005494
  WF centre and spread    6  (  2.352449, -1.466003,  6.845154 )     4.91233169
  WF centre and spread    7  (  1.950942, -1.023063,  6.913383 )     4.81828598
  WF centre and spread    8  (  1.757711, -1.825123,  7.416474 )     4.86147302
  WF centre and spread    9  (  2.253738,  1.253995,  4.517460 )     3.82450593
  WF centre and spread   10  (  2.246282, -1.257102,  9.001456 )     1.65745698
  Sum of centres and spreads ( 22.457503, -0.023276, 67.945087 )    34.99562085
 
      6    -0.131E+00     0.5959943697       34.9956208497       1.08  <-- CONV
        O_D=      0.2293863 O_OD=      7.9162881 O_TOT=     34.9956208 <-- SPRD
 Delta: O_D= -0.9237898E-02 O_OD= -0.1215030E+00 O_TOT= -0.1307409E+00 <-- DLTA
 ------------------------------------------------------------------------------
 Cycle:      7
  WF centre and spread    1  (  2.478114,  1.532089,  6.756057 )     2.61726023
  WF centre and spread    2  (  2.622029,  0.929330,  6.132940 )     2.49261587
  WF centre and spread    3  (  1.961880,  1.581250,  6.138672 )     2.58649164
  WF centre and spread    4  (  1.926521,  0.971611,  6.757720 )     2.63145239
  WF centre and spread    5  (  2.909914, -0.720874,  7.467635 )     4.57729235
  WF centre and spread    6  (  2.349493, -1.463509,  6.839708 )     4.91618282
  WF centre and spread    7  (  1.950662, -1.023270,  6.914539 )     4.81604536
  WF centre and spread    8  (  1.759261, -1.826728,  7.415964 )     4.85079550
  WF centre and spread    9  (  2.253507,  1.254082,  4.515000 )     3.82323403
  WF centre and spread   10  (  2.246127, -1.257107,  9.003338 )     1.62911932
  Sum of centres and spreads ( 22.457509, -0.023125, 67.941574 )    34.94048951
 
      7    -0.551E-01     0.4943653824       34.9404895147       1.08  <-- CONV
        O_D=      0.2291834 O_OD=      7.8613596 O_TOT=     34.9404895 <-- SPRD
 Delta: O_D= -0.2029125E-03 O_OD= -0.5492842E-01 O_TOT= -0.5513134E-01 <-- DLTA
 ------------------------------------------------------------------------------
 Cycle:      8
  WF centre and spread    1  (  2.477537,  1.532474,  6.757107 )     2.63259578
  WF centre and spread    2  (  2.622534,  0.930021,  6.134281 )     2.49367888
  WF centre and spread    3  (  1.962941,  1.581176,  6.138804 )     2.58789846
  WF centre and spread    4  (  1.924950,  0.970820,  6.757764 )     2.63708455
  WF centre and spread    5  (  2.916003, -0.722900,  7.469837 )     4.55514621
  WF centre and spread    6  (  2.341397, -1.456643,  6.824943 )     4.93465761
  WF centre and spread    7  (  1.949964, -1.023780,  6.918430 )     4.81933367
  WF centre and spread    8  (  1.763380, -1.831285,  7.414870 )     4.83283712
  WF centre and spread    9  (  2.252944,  1.254304,  4.509469 )     3.82153115
  WF centre and spread   10  (  2.245822, -1.257026,  9.006935 )     1.57490137
  Sum of centres and spreads ( 22.457472, -0.022838, 67.932441 )    34.88966478
 
      8    -0.508E-01     0.3526823125       34.8896647800       1.09  <-- CONV
        O_D=      0.2316795 O_OD=      7.8080388 O_TOT=     34.8896648 <-- SPRD
 Delta: O_D=  0.2496068E-02 O_OD= -0.5332080E-01 O_TOT= -0.5082473E-01 <-- DLTA
 ------------------------------------------------------------------------------
 Cycle:      9
  WF centre and spread    1  (  2.476088,  1.533128,  6.758364 )     2.66302408
  WF centre and spread    2  (  2.623876,  0.931321,  6.136494 )     2.49787312
  WF centre and spread    3  (  1.965280,  1.581099,  6.138404 )     2.59328622
  WF centre and spread    4  (  1.921967,  0.969310,  6.757103 )     2.64974425
  WF centre and spread    5  (  2.927792, -0.727217,  7.474973 )     4.51786434
  WF centre and spread    6  (  2.324895, -1.442445,  6.795129 )     4.97399787
  WF centre and spread    7  (  1.948229, -1.024551,  6.928384 )     4.82976879
  WF centre and spread    8  (  1.771745, -1.841116,  7.414044 )     4.80316753
  WF centre and spread    9  (  2.252020,  1.254742,  4.501249 )     3.82112058
  WF centre and spread   10  (  2.245382, -1.256928,  9.010986 )     1.47862873
  Sum of centres and spreads ( 22.457274, -0.022657, 67.915131 )    34.82847551
 
      9    -0.612E-01     0.3485501416       34.8284755078       1.10  <-- CONV
        O_D=      0.2336763 O_OD=      7.7448527 O_TOT=     34.8284755 <-- SPRD
 Delta: O_D=  0.1996853E-02 O_OD= -0.6318612E-01 O_TOT= -0.6118927E-01 <-- DLTA
 ------------------------------------------------------------------------------
 Cycle:     10
  WF centre and spread    1  (  2.473941,  1.533779,  6.759116 )     2.69640861
  WF centre and spread    2  (  2.625827,  0.933067,  6.138569 )     2.49928879
  WF centre and spread    3  (  1.968688,  1.580844,  6.136925 )     2.59667428
  WF centre and spread    4  (  1.918334,  0.967524,  6.755451 )     2.66209673
  WF centre and spread    5  (  2.941982, -0.733670,  7.482738 )     4.47731852
  WF centre and spread    6  (  2.303515, -1.423164,  6.754744 )     5.02390920
  WF centre and spread    7  (  1.945227, -1.024780,  6.944475 )     4.84525672
  WF centre and spread    8  (  1.783227, -1.854680,  7.415601 )     4.77081417
  WF centre and spread    9  (  2.251026,  1.255327,  4.494422 )     3.82282376
  WF centre and spread   10  (  2.245024, -1.256894,  9.012253 )     1.37304415
  Sum of centres and spreads ( 22.456791, -0.022646, 67.894293 )    34.76763492
 
     10    -0.608E-01     0.3847918613       34.7676349204       1.10  <-- CONV
        O_D=      0.2329000 O_OD=      7.6847884 O_TOT=     34.7676349 <-- SPRD
 Delta: O_D= -0.7762997E-03 O_OD= -0.6006429E-01 O_TOT= -0.6084059E-01 <-- DLTA
 ------------------------------------------------------------------------------
 Cycle:     11
  WF centre and spread    1  (  2.470768,  1.534689,  6.759601 )     2.73484566
  WF centre and spread    2  (  2.628774,  0.935482,  6.140212 )     2.49250225
  WF centre and spread    3  (  1.973985,  1.580233,  6.133763 )     2.59529473
  WF centre and spread    4  (  1.913376,  0.965113,  6.752612 )     2.67238275
  WF centre and spread    5  (  2.959922, -0.743920,  7.494567 )     4.42476483
  WF centre and spread    6  (  2.274836, -1.394985,  6.693607 )     5.09076435
  WF centre and spread    7  (  1.939182, -1.023169,  6.971735 )     4.86530659
  WF centre and spread    8  (  1.800306, -1.875148,  7.421908 )     4.72744047
  WF centre and spread    9  (  2.249841,  1.256265,  4.490323 )     3.83067647
  WF centre and spread   10  (  2.244817, -1.257076,  9.009616 )     1.26540369
  Sum of centres and spreads ( 22.455806, -0.022515, 67.867944 )    34.69938177
 
     11    -0.683E-01     0.3697607825       34.6993817712       1.11  <-- CONV
        O_D=      0.2268910 O_OD=      7.6225443 O_TOT=     34.6993818 <-- SPRD
 Delta: O_D= -0.6009046E-02 O_OD= -0.6224410E-01 O_TOT= -0.6825315E-01 <-- DLTA
 ------------------------------------------------------------------------------
 Cycle:     12
  WF centre and spread    1  (  2.466955,  1.536309,  6.760695 )     2.78046089
  WF centre and spread    2  (  2.632969,  0.938363,  6.141645 )     2.48075277
  WF centre and spread    3  (  1.981163,  1.579397,  6.129238 )     2.59396381
  WF centre and spread    4  (  1.906663,  0.961744,  6.749068 )     2.68028267
  WF centre and spread    5  (  2.980368, -0.759206,  7.510082 )     4.35359454
  WF centre and spread    6  (  2.240131, -1.356816,  6.605075 )     5.17391485
  WF centre and spread    7  (  1.927933, -1.017891,  7.014119 )     4.88322134
  WF centre and spread    8  (  1.824579, -1.903989,  7.435198 )     4.66138485
  WF centre and spread    9  (  2.248568,  1.257604,  4.490529 )     3.84530223
  WF centre and spread   10  (  2.245265, -1.257860,  9.000840 )     1.16707826
  Sum of centres and spreads ( 22.454593, -0.022345, 67.836489 )    34.61995621
 
     12    -0.794E-01     0.4255154625       34.6199562143       1.12  <-- CONV
        O_D=      0.2162746 O_OD=      7.5537351 O_TOT=     34.6199562 <-- SPRD
 Delta: O_D= -0.1061637E-01 O_OD= -0.6880918E-01 O_TOT= -0.7942556E-01 <-- DLTA
 ------------------------------------------------------------------------------
 Cycle:     13
  WF centre and spread    1  (  2.467085,  1.536759,  6.761256 )     2.77140291
  WF centre and spread    2  (  2.633254,  0.938315,  6.141542 )     2.47857149
  WF centre and spread    3  (  1.981468,  1.579364,  6.128948 )     2.59273982
  WF centre and spread    4  (  1.905906,  0.961276,  6.749271 )     2.67210192
  WF centre and spread    5  (  2.982933, -0.760469,  7.510663 )     4.34006979
  WF centre and spread    6  (  2.237610, -1.352376,  6.588715 )     5.17329215
  WF centre and spread    7  (  1.924990, -1.015663,  7.021920 )     4.88118895
  WF centre and spread    8  (  1.827475, -1.909538,  7.436507 )     4.64577072
  WF centre and spread    9  (  2.248731,  1.257788,  4.494041 )     3.84838881
  WF centre and spread   10  (  2.245336, -1.257917,  9.001934 )     1.15809245
  Sum of centres and spreads ( 22.454788, -0.022461, 67.834796 )    34.56161900
 
     13    -0.583E-01     0.4502575999       34.5616189952       1.12  <-- CONV
        O_D=      0.2149895 O_OD=      7.4966830 O_TOT=     34.5616190 <-- SPRD
 Delta: O_D= -0.1285103E-02 O_OD= -0.5705212E-01 O_TOT= -0.5833722E-01 <-- DLTA
 ------------------------------------------------------------------------------
 Cycle:     14
  WF centre and spread    1  (  2.467160,  1.537771,  6.762469 )     2.75992919
  WF centre and spread    2  (  2.634238,  0.938136,  6.141736 )     2.48022064
  WF centre and spread    3  (  1.982223,  1.579393,  6.128552 )     2.59624522
  WF centre and spread    4  (  1.903977,  0.960113,  6.749485 )     2.66036589
  WF centre and spread    5  (  2.989206, -0.764121,  7.512305 )     4.31773787
  WF centre and spread    6  (  2.231105, -1.340956,  6.546711 )     5.17310083
  WF centre and spread    7  (  1.917077, -1.009730,  7.042580 )     4.88185943
  WF centre and spread    8  (  1.835519, -1.923309,  7.440311 )     4.61735567
  WF centre and spread    9  (  2.249047,  1.258203,  4.502133 )     3.85551078
  WF centre and spread   10  (  2.245486, -1.258059,  9.004905 )     1.15677165
  Sum of centres and spreads ( 22.455037, -0.022559, 67.831188 )    34.49909717
 
     14    -0.625E-01     0.3829007741       34.4990971651       1.13  <-- CONV
        O_D=      0.2126937 O_OD=      7.4364569 O_TOT=     34.4990972 <-- SPRD
 Delta: O_D= -0.2295749E-02 O_OD= -0.6022608E-01 O_TOT= -0.6252183E-01 <-- DLTA
 ------------------------------------------------------------------------------
 Cycle:     15
  WF centre and spread    1  (  2.466409,  1.539347,  6.764213 )     2.74206266
  WF centre and spread    2  (  2.636764,  0.938023,  6.143028 )     2.48757701
  WF centre and spread    3  (  1.984305,  1.579465,  6.128077 )     2.60264745
  WF centre and spread    4  (  1.900118,  0.958017,  6.748756 )     2.63989506
  WF centre and spread    5  (  3.001948, -0.773671,  7.516753 )     4.28186954
  WF centre and spread    6  (  2.216710, -1.316250,  6.452722 )     5.15748338
  WF centre and spread    7  (  1.898099, -0.996048,  7.091201 )     4.88293941
  WF centre and spread    8  (  1.855787, -1.952247,  7.450755 )     4.56408888
  WF centre and spread    9  (  2.249414,  1.259052,  4.516779 )     3.87282128
  WF centre and spread   10  (  2.245546, -1.258286,  9.009981 )     1.17867278
  Sum of centres and spreads ( 22.455099, -0.022598, 67.822267 )    34.41005745
 
     15    -0.890E-01     0.3922789785       34.4100574521       1.13  <-- CONV
        O_D=      0.2061003 O_OD=      7.3540106 O_TOT=     34.4100575 <-- SPRD
 Delta: O_D= -0.6593400E-02 O_OD= -0.8244631E-01 O_TOT= -0.8903971E-01 <-- DLTA
 ------------------------------------------------------------------------------
 Cycle:     16
  WF centre and spread    1  (  2.463859,  1.542640,  6.768442 )     2.70194241
  WF centre and spread    2  (  2.644057,  0.938336,  6.149440 )     2.52323395
  WF centre and spread    3  (  1.990320,  1.579683,  6.128639 )     2.62353031
  WF centre and spread    4  (  1.890959,  0.952650,  6.744814 )     2.59230882
  WF centre and spread    5  (  3.029222, -0.804051,  7.529256 )     4.21903709
  WF centre and spread    6  (  2.185085, -1.258669,  6.196755 )     5.04302492
  WF centre and spread    7  (  1.839552, -0.954072,  7.227562 )     4.86920537
  WF centre and spread    8  (  1.917440, -2.022590,  7.483198 )     4.42708520
  WF centre and spread    9  (  2.249621,  1.260821,  4.553343 )     3.91305346
  WF centre and spread   10  (  2.245138, -1.257991,  9.012019 )     1.29761365
  Sum of centres and spreads ( 22.455252, -0.023243, 67.793470 )    34.21003518
 
     16    -0.200E+00     0.5547623610       34.2100351779       1.14  <-- CONV
        O_D=      0.1901598 O_OD=      7.1699289 O_TOT=     34.2100352 <-- SPRD
 Delta: O_D= -0.1594058E-01 O_OD= -0.1840817E+00 O_TOT= -0.2000223E+00 <-- DLTA
 ------------------------------------------------------------------------------
 Cycle:     17
  WF centre and spread    1  (  2.461444,  1.548742,  6.777825 )     2.65971304
  WF centre and spread    2  (  2.656320,  0.939341,  6.165535 )     2.60973138
  WF centre and spread    3  (  2.000321,  1.580295,  6.134094 )     2.66815365
  WF centre and spread    4  (  1.877070,  0.942107,  6.736819 )     2.54059519
  WF centre and spread    5  (  3.047500, -0.856040,  7.538511 )     4.16908729
  WF centre and spread    6  (  2.173013, -1.213934,  5.855009 )     4.77355698
  WF centre and spread    7  (  1.728796, -0.874758,  7.414371 )     4.78670907
  WF centre and spread    8  (  2.019449, -2.096616,  7.524806 )     4.23090966
  WF centre and spread    9  (  2.249103,  1.261846,  4.613424 )     3.97117450
  WF centre and spread   10  (  2.243074, -1.255722,  8.988767 )     1.57931079
  Sum of centres and spreads ( 22.456090, -0.024741, 67.749162 )    33.98894156
 
     17    -0.221E+00     0.8607499850       33.9889415553       1.15  <-- CONV
        O_D=      0.1642164 O_OD=      6.9747787 O_TOT=     33.9889416 <-- SPRD
 Delta: O_D= -0.2594338E-01 O_OD= -0.1951502E+00 O_TOT= -0.2210936E+00 <-- DLTA
 ------------------------------------------------------------------------------
 Cycle:     18
  WF centre and spread    1  (  2.460094,  1.550706,  6.782593 )     2.64452203
  WF centre and spread    2  (  2.661184,  0.939931,  6.172476 )     2.63538000
  WF centre and spread    3  (  2.004718,  1.580582,  6.136571 )     2.67813626
  WF centre and spread    4  (  1.871975,  0.938003,  6.733188 )     2.52398119
  WF centre and spread    5  (  3.044517, -0.874844,  7.535531 )     4.16636636
  WF centre and spread    6  (  2.184466, -1.216932,  5.766194 )     4.69380954
  WF centre and spread    7  (  1.682031, -0.842468,  7.466096 )     4.73687234
  WF centre and spread    8  (  2.057221, -2.107244,  7.530451 )     4.17721347
  WF centre and spread    9  (  2.248628,  1.261461,  4.635157 )     3.98479663
  WF centre and spread   10  (  2.241894, -1.254392,  8.977043 )     1.67062074
  Sum of centres and spreads ( 22.456728, -0.025197, 67.735300 )    33.91169856
 
     18    -0.772E-01     0.9855717733       33.9116985633       1.15  <-- CONV
        O_D=      0.1519135 O_OD=      6.9098385 O_TOT=     33.9116986 <-- SPRD
 Delta: O_D= -0.1230284E-01 O_OD= -0.6494015E-01 O_TOT= -0.7724299E-01 <-- DLTA
 ------------------------------------------------------------------------------
 Cycle:     19
  WF centre and spread    1  (  2.455032,  1.547304,  6.785396 )     2.63569453
  WF centre and spread    2  (  2.661503,  0.940022,  6.170362 )     2.56752872
  WF centre and spread    3  (  2.006298,  1.581672,  6.132919 )     2.63745634
  WF centre and spread    4  (  1.871912,  0.940787,  6.732199 )     2.51258046
  WF centre and spread    5  (  3.046673, -0.873610,  7.538549 )     4.12135827
  WF centre and spread    6  (  2.194628, -1.223428,  5.733883 )     4.64575774
  WF centre and spread    7  (  1.665581, -0.834125,  7.480272 )     4.65356272
  WF centre and spread    8  (  2.069827, -2.110303,  7.532754 )     4.12888486
  WF centre and spread    9  (  2.245902,  1.260941,  4.619266 )     3.95661860
  WF centre and spread   10  (  2.239784, -1.253260,  8.999971 )     1.54243092
  Sum of centres and spreads ( 22.457140, -0.024001, 67.725569 )    33.40187316
 
     19    -0.510E+00     0.9031273755       33.4018731579       1.16  <-- CONV
        O_D=      0.1532102 O_OD=      6.3987165 O_TOT=     33.4018732 <-- SPRD
 Delta: O_D=  0.1296660E-02 O_OD= -0.5111221E+00 O_TOT= -0.5098254E+00 <-- DLTA
 ------------------------------------------------------------------------------
 Cycle:     20
  WF centre and spread    1  (  2.451563,  1.544980,  6.789042 )     2.64858434
  WF centre and spread    2  (  2.662025,  0.939726,  6.173288 )     2.54164675
  WF centre and spread    3  (  2.006765,  1.583345,  6.132429 )     2.63311029
  WF centre and spread    4  (  1.871420,  0.942595,  6.730802 )     2.51915943
  WF centre and spread    5  (  3.047807, -0.873417,  7.540909 )     4.10097135
  WF centre and spread    6  (  2.204982, -1.230256,  5.703368 )     4.60787774
  WF centre and spread    7  (  1.647302, -0.824765,  7.496231 )     4.57533891
  WF centre and spread    8  (  2.083823, -2.112942,  7.534471 )     4.10410892
  WF centre and spread    9  (  2.243397,  1.259718,  4.605650 )     3.88715654
  WF centre and spread   10  (  2.238187, -1.252296,  9.010768 )     1.37762782
  Sum of centres and spreads ( 22.457270, -0.023311, 67.716959 )    32.99558209
 
     20    -0.406E+00     1.2493380445       32.9955820895       1.16  <-- CONV
        O_D=      0.1536067 O_OD=      5.9920289 O_TOT=     32.9955821 <-- SPRD
 Delta: O_D=  0.3965068E-03 O_OD= -0.4066876E+00 O_TOT= -0.4062911E+00 <-- DLTA
 ------------------------------------------------------------------------------
 Cycle:     21
  WF centre and spread    1  (  2.449014,  1.543520,  6.790931 )     2.65648635
  WF centre and spread    2  (  2.662739,  0.940229,  6.176453 )     2.53223953
  WF centre and spread    3  (  2.008429,  1.583900,  6.132074 )     2.63071446
  WF centre and spread    4  (  1.870748,  0.943801,  6.728728 )     2.52248332
  WF centre and spread    5  (  3.047114, -0.874712,  7.543121 )     4.10279476
  WF centre and spread    6  (  2.211497, -1.234730,  5.684369 )     4.58059407
  WF centre and spread    7  (  1.632858, -0.817340,  7.508157 )     4.52765268
  WF centre and spread    8  (  2.094307, -2.114691,  7.536182 )     4.09518982
  WF centre and spread    9  (  2.242195,  1.258662,  4.600595 )     3.86095408
  WF centre and spread   10  (  2.237733, -1.251988,  9.012113 )     1.31571757
  Sum of centres and spreads ( 22.456636, -0.023349, 67.712720 )    32.82482664
 
     21    -0.171E+00     0.7107671210       32.8248266413       1.17  <-- CONV
        O_D=      0.1499517 O_OD=      5.8249285 O_TOT=     32.8248266 <-- SPRD
 Delta: O_D= -0.3655038E-02 O_OD= -0.1671004E+00 O_TOT= -0.1707554E+00 <-- DLTA
 ------------------------------------------------------------------------------
 Cycle:     22
  WF centre and spread    1  (  2.447187,  1.542522,  6.792638 )     2.66522234
  WF centre and spread    2  (  2.663425,  0.940599,  6.178796 )     2.52743271
  WF centre and spread    3  (  2.009943,  1.584106,  6.131590 )     2.63177212
  WF centre and spread    4  (  1.870041,  0.944495,  6.726933 )     2.52780776
  WF centre and spread    5  (  3.045894, -0.876148,  7.544731 )     4.10937829
  WF centre and spread    6  (  2.216970, -1.238235,  5.670508 )     4.56037795
  WF centre and spread    7  (  1.619719, -0.810403,  7.517511 )     4.49722258
  WF centre and spread    8  (  2.103372, -2.116123,  7.537524 )     4.09452349
  WF centre and spread    9  (  2.241630,  1.257773,  4.598944 )     3.84222488
  WF centre and spread   10  (  2.237932, -1.252003,  9.011323 )     1.28121746
  Sum of centres and spreads ( 22.456114, -0.023416, 67.710498 )    32.73717958
 
     22    -0.876E-01     0.5273028421       32.7371795775       1.18  <-- CONV
        O_D=      0.1454374 O_OD=      5.7417957 O_TOT=     32.7371796 <-- SPRD
 Delta: O_D= -0.4514274E-02 O_OD= -0.8313279E-01 O_TOT= -0.8764706E-01 <-- DLTA
 ------------------------------------------------------------------------------
 Cycle:     23
  WF centre and spread    1  (  2.445725,  1.541766,  6.794838 )     2.67289179
  WF centre and spread    2  (  2.664251,  0.940766,  6.180525 )     2.52010264
  WF centre and spread    3  (  2.011479,  1.584252,  6.130727 )     2.63210478
  WF centre and spread    4  (  1.869104,  0.944907,  6.725388 )     2.53337875
  WF centre and spread    5  (  3.044479, -0.877385,  7.545992 )     4.12122513
  WF centre and spread    6  (  2.222284, -1.241561,  5.658132 )     4.54246644
  WF centre and spread    7  (  1.605262, -0.802989,  7.526234 )     4.47181519
  WF centre and spread    8  (  2.112928, -2.117950,  7.538683 )     4.10162489
  WF centre and spread    9  (  2.241579,  1.256861,  4.599891 )     3.82736341
  WF centre and spread   10  (  2.238574, -1.252225,  9.009730 )     1.25851222
  Sum of centres and spreads ( 22.455666, -0.023557, 67.710139 )    32.68148525
 
     23    -0.557E-01     0.3887528189       32.6814852452       1.18  <-- CONV
        O_D=      0.1401452 O_OD=      5.6913935 O_TOT=     32.6814852 <-- SPRD
 Delta: O_D= -0.5292149E-02 O_OD= -0.5040218E-01 O_TOT= -0.5569433E-01 <-- DLTA
 ------------------------------------------------------------------------------
 Cycle:     24
  WF centre and spread    1  (  2.443074,  1.540603,  6.799413 )     2.68276995
  WF centre and spread    2  (  2.666056,  0.940847,  6.183400 )     2.50592735
  WF centre and spread    3  (  2.014212,  1.584845,  6.128909 )     2.63493788
  WF centre and spread    4  (  1.867040,  0.945499,  6.722668 )     2.54027454
  WF centre and spread    5  (  3.041406, -0.879088,  7.547885 )     4.14663788
  WF centre and spread    6  (  2.230642, -1.246737,  5.641171 )     4.51468768
  WF centre and spread    7  (  1.578397, -0.790898,  7.539713 )     4.42500958
  WF centre and spread    8  (  2.131162, -2.120869,  7.540520 )     4.12244268
  WF centre and spread    9  (  2.242234,  1.255113,  4.604212 )     3.80431432
  WF centre and spread   10  (  2.240468, -1.253073,  9.004561 )     1.22571560
  Sum of centres and spreads ( 22.454691, -0.023759, 67.712452 )    32.60271747
 
     24    -0.788E-01     0.3863771572       32.6027174748       1.19  <-- CONV
        O_D=      0.1322097 O_OD=      5.6205613 O_TOT=     32.6027175 <-- SPRD
 Delta: O_D= -0.7935525E-02 O_OD= -0.7083225E-01 O_TOT= -0.7876777E-01 <-- DLTA
 ------------------------------------------------------------------------------
 Cycle:     25
  WF centre and spread    1  (  2.442855,  1.540623,  6.799862 )     2.67986827
  WF centre and spread    2  (  2.666477,  0.940720,  6.183767 )     2.50592704
  WF centre and spread    3  (  2.014374,  1.585153,  6.128997 )     2.63635232
  WF centre and spread    4  (  1.866704,  0.945391,  6.722360 )     2.53937888
  WF centre and spread    5  (  3.041077, -0.878743,  7.547851 )     4.14586084
  WF centre and spread    6  (  2.231028, -1.246998,  5.640227 )     4.50644726
  WF centre and spread    7  (  1.576133, -0.790371,  7.540226 )     4.41572775
  WF centre and spread    8  (  2.132935, -2.121186,  7.540476 )     4.12281836
  WF centre and spread    9  (  2.242475,  1.255030,  4.604643 )     3.79950456
  WF centre and spread   10  (  2.240651, -1.253289,  9.005504 )     1.22211643
  Sum of centres and spreads ( 22.454710, -0.023670, 67.713914 )    32.57400170
 
     25    -0.287E-01     0.3634033095       32.5740017017       1.19  <-- CONV
        O_D=      0.1314092 O_OD=      5.5926460 O_TOT=     32.5740017 <-- SPRD
 Delta: O_D= -0.8004748E-03 O_OD= -0.2791530E-01 O_TOT= -0.2871577E-01 <-- DLTA
 ------------------------------------------------------------------------------
 Cycle:     26
  WF centre and spread    1  (  2.442338,  1.540633,  6.801009 )     2.67712529
  WF centre and spread    2  (  2.667486,  0.940405,  6.184655 )     2.50878663
  WF centre and spread    3  (  2.014839,  1.585764,  6.129170 )     2.64193438
  WF centre and spread    4  (  1.865823,  0.945122,  6.721517 )     2.54102652
  WF centre and spread    5  (  3.040188, -0.877955,  7.547800 )     4.15236240
  WF centre and spread    6  (  2.231986, -1.247684,  5.638141 )     4.48788483
  WF centre and spread    7  (  1.570458, -0.789165,  7.541691 )     4.40152205
  WF centre and spread    8  (  2.137635, -2.121854,  7.540537 )     4.13017319
  WF centre and spread    9  (  2.243044,  1.254809,  4.605896 )     3.79134096
  WF centre and spread   10  (  2.241094, -1.253677,  9.007063 )     1.22453108
  Sum of centres and spreads ( 22.454892, -0.023600, 67.717481 )    32.55668733
 
     26    -0.173E-01     0.1985742170       32.5566873347       1.20  <-- CONV
        O_D=      0.1307755 O_OD=      5.5759654 O_TOT=     32.5566873 <-- SPRD
 Delta: O_D= -0.6337511E-03 O_OD= -0.1668062E-01 O_TOT= -0.1731437E-01 <-- DLTA
 ------------------------------------------------------------------------------
 Cycle:     27
  WF centre and spread    1  (  2.441202,  1.540611,  6.803234 )     2.67303896
  WF centre and spread    2  (  2.669469,  0.939867,  6.186440 )     2.51408168
  WF centre and spread    3  (  2.016054,  1.586803,  6.129361 )     2.65047080
  WF centre and spread    4  (  1.864028,  0.944549,  6.719555 )     2.54501864
  WF centre and spread    5  (  3.038338, -0.876506,  7.547744 )     4.16864933
  WF centre and spread    6  (  2.233810, -1.249009,  5.634976 )     4.45218550
  WF centre and spread    7  (  1.559160, -0.787206,  7.544420 )     4.37820353
  WF centre and spread    8  (  2.147368, -2.122776,  7.540893 )     4.14683301
  WF centre and spread    9  (  2.244086,  1.254373,  4.608565 )     3.77406555
  WF centre and spread   10  (  2.241924, -1.254332,  9.009774 )     1.23218551
  Sum of centres and spreads ( 22.455439, -0.023626, 67.724962 )    32.53473252
 
     27    -0.220E-01     0.2148413935       32.5347325240       1.21  <-- CONV
        O_D=      0.1292764 O_OD=      5.5555096 O_TOT=     32.5347325 <-- SPRD
 Delta: O_D= -0.1499084E-02 O_OD= -0.2045573E-01 O_TOT= -0.2195481E-01 <-- DLTA
 ------------------------------------------------------------------------------
 Cycle:     28
  WF centre and spread    1  (  2.439380,  1.540387,  6.805897 )     2.67038038
  WF centre and spread    2  (  2.671912,  0.939414,  6.188768 )     2.52078253
  WF centre and spread    3  (  2.018043,  1.587905,  6.129313 )     2.65907234
  WF centre and spread    4  (  1.861759,  0.943885,  6.716634 )     2.54964957
  WF centre and spread    5  (  3.035805, -0.874936,  7.547918 )     4.18995479
  WF centre and spread    6  (  2.235827, -1.250397,  5.632738 )     4.41149109
  WF centre and spread    7  (  1.545419, -0.785704,  7.547110 )     4.35271274
  WF centre and spread    8  (  2.159819, -2.123196,  7.541654 )     4.16700802
  WF centre and spread    9  (  2.245194,  1.253841,  4.611680 )     3.75046002
  WF centre and spread   10  (  2.242988, -1.255053,  9.012280 )     1.24177812
  Sum of centres and spreads ( 22.456145, -0.023854, 67.733994 )    32.51328960
 
     28    -0.214E-01     0.2254478251       32.5132895997       1.21  <-- CONV
        O_D=      0.1268661 O_OD=      5.5364770 O_TOT=     32.5132896 <-- SPRD
 Delta: O_D= -0.2410260E-02 O_OD= -0.1903266E-01 O_TOT= -0.2144292E-01 <-- DLTA
 ------------------------------------------------------------------------------
 Cycle:     29
  WF centre and spread    1  (  2.437085,  1.539957,  6.808563 )     2.67094972
  WF centre and spread    2  (  2.674292,  0.939206,  6.191223 )     2.52710532
  WF centre and spread    3  (  2.020583,  1.588922,  6.128818 )     2.66667091
  WF centre and spread    4  (  1.859330,  0.943240,  6.713228 )     2.55464920
  WF centre and spread    5  (  3.033112, -0.873479,  7.548469 )     4.20835166
  WF centre and spread    6  (  2.237483, -1.251357,  5.632252 )     4.37745999
  WF centre and spread    7  (  1.532304, -0.785396,  7.548836 )     4.32894794
  WF centre and spread    8  (  2.172337, -2.123019,  7.542663 )     4.18337214
  WF centre and spread    9  (  2.245976,  1.253311,  4.614481 )     3.72788472
  WF centre and spread   10  (  2.244029, -1.255679,  9.013845 )     1.25059571
  Sum of centres and spreads ( 22.456532, -0.024294, 67.742377 )    32.49598731
 
     29    -0.173E-01     0.2003955818       32.4959873126       1.22  <-- CONV
        O_D=      0.1245088 O_OD=      5.5215320 O_TOT=     32.4959873 <-- SPRD
 Delta: O_D= -0.2357300E-02 O_OD= -0.1494499E-01 O_TOT= -0.1730229E-01 <-- DLTA
 ------------------------------------------------------------------------------
 Cycle:     30
  WF centre and spread    1  (  2.435485,  1.539540,  6.810359 )     2.67289124
  WF centre and spread    2  (  2.675695,  0.939207,  6.192866 )     2.53061891
  WF centre and spread    3  (  2.022316,  1.589567,  6.128262 )     2.67201257
  WF centre and spread    4  (  1.857721,  0.942877,  6.710905 )     2.55787832
  WF centre and spread    5  (  3.031478, -0.872364,  7.548926 )     4.21672819
  WF centre and spread    6  (  2.238367, -1.251726,  5.632805 )     4.36270203
  WF centre and spread    7  (  1.524762, -0.785908,  7.549395 )     4.31438449
  WF centre and spread    8  (  2.179900, -2.122776,  7.543323 )     4.19096087
  WF centre and spread    9  (  2.246235,  1.252985,  4.615653 )     3.71651717
  WF centre and spread   10  (  2.244611, -1.255983,  9.014118 )     1.25279501
  Sum of centres and spreads ( 22.456570, -0.024580, 67.746613 )    32.48748881
 
     30    -0.850E-02     0.1704072065       32.4874888056       1.22  <-- CONV
        O_D=      0.1233053 O_OD=      5.5142370 O_TOT=     32.4874888 <-- SPRD
 Delta: O_D= -0.1203558E-02 O_OD= -0.7294949E-02 O_TOT= -0.8498507E-02 <-- DLTA
 ------------------------------------------------------------------------------
 Cycle:     31
  WF centre and spread    1  (  2.435143,  1.539362,  6.810789 )     2.67323237
  WF centre and spread    2  (  2.675886,  0.939283,  6.193234 )     2.53057948
  WF centre and spread    3  (  2.022642,  1.589707,  6.128042 )     2.67306490
  WF centre and spread    4  (  1.857420,  0.942872,  6.710407 )     2.55770524
  WF centre and spread    5  (  3.031264, -0.871927,  7.549002 )     4.21588384
  WF centre and spread    6  (  2.238483, -1.251688,  5.633069 )     4.36465030
  WF centre and spread    7  (  1.523922, -0.786233,  7.549405 )     4.31104637
  WF centre and spread    8  (  2.180986, -2.122913,  7.543413 )     4.19043263
  WF centre and spread    9  (  2.246138,  1.252957,  4.615348 )     3.71599259
  WF centre and spread   10  (  2.244648, -1.256001,  9.013832 )     1.25009201
  Sum of centres and spreads ( 22.456532, -0.024581, 67.746541 )    32.48267974
 
     31    -0.481E-02     0.1450766413       32.4826797393       1.23  <-- CONV
        O_D=      0.1233510 O_OD=      5.5093823 O_TOT=     32.4826797 <-- SPRD
 Delta: O_D=  0.4571692E-04 O_OD= -0.4854783E-02 O_TOT= -0.4809066E-02 <-- DLTA
 ------------------------------------------------------------------------------
 Cycle:     32
  WF centre and spread    1  (  2.434026,  1.538802,  6.812205 )     2.67532785
  WF centre and spread    2  (  2.676576,  0.939495,  6.194498 )     2.53147379
  WF centre and spread    3  (  2.023754,  1.590176,  6.127368 )     2.67708917
  WF centre and spread    4  (  1.856404,  0.942815,  6.708763 )     2.55803868
  WF centre and spread    5  (  3.030508, -0.870496,  7.549227 )     4.21441239
  WF centre and spread    6  (  2.238790, -1.251560,  5.633931 )     4.37105556
  WF centre and spread    7  (  1.521214, -0.787348,  7.549417 )     4.30136896
  WF centre and spread    8  (  2.184538, -2.123314,  7.543689 )     4.18994403
  WF centre and spread    9  (  2.245832,  1.252859,  4.614400 )     3.71403760
  WF centre and spread   10  (  2.244759, -1.256043,  9.012804 )     1.24368733
  Sum of centres and spreads ( 22.456401, -0.024614, 67.746301 )    32.47643536
 
     32    -0.624E-02     0.1157884735       32.4764353584       1.24  <-- CONV
        O_D=      0.1235335 O_OD=      5.5029554 O_TOT=     32.4764354 <-- SPRD
 Delta: O_D=  0.1824789E-03 O_OD= -0.6426860E-02 O_TOT= -0.6244381E-02 <-- DLTA
 ------------------------------------------------------------------------------
 Cycle:     33
  WF centre and spread    1  (  2.432460,  1.538072,  6.814085 )     2.67800002
  WF centre and spread    2  (  2.677651,  0.939736,  6.196275 )     2.53289525
  WF centre and spread    3  (  2.025379,  1.590821,  6.126568 )     2.68159776
  WF centre and spread    4  (  1.854995,  0.942690,  6.706450 )     2.55853641
  WF centre and spread    5  (  3.029334, -0.868579,  7.549474 )     4.21396204
  WF centre and spread    6  (  2.239066, -1.251403,  5.635025 )     4.37812959
  WF centre and spread    7  (  1.517760, -0.789039,  7.549407 )     4.29019523
  WF centre and spread    8  (  2.189255, -2.123632,  7.544037 )     4.19067327
  WF centre and spread    9  (  2.245482,  1.252735,  4.613193 )     3.70927860
  WF centre and spread   10  (  2.244897, -1.256099,  9.011588 )     1.23800710
  Sum of centres and spreads ( 22.456279, -0.024698, 67.746104 )    32.47127528
 
     33    -0.516E-02     0.1096692455       32.4712752772       1.24  <-- CONV
        O_D=      0.1234585 O_OD=      5.4978703 O_TOT=     32.4712753 <-- SPRD
 Delta: O_D= -0.7498304E-04 O_OD= -0.5085098E-02 O_TOT= -0.5160081E-02 <-- DLTA
 ------------------------------------------------------------------------------
 Cycle:     34
  WF centre and spread    1  (  2.430662,  1.537265,  6.816209 )     2.68009628
  WF centre and spread    2  (  2.679015,  0.939954,  6.198340 )     2.53409479
  WF centre and spread    3  (  2.027303,  1.591560,  6.125849 )     2.68534287
  WF centre and spread    4  (  1.853337,  0.942481,  6.703696 )     2.55881102
  WF centre and spread    5  (  3.027871, -0.866325,  7.549642 )     4.21534252
  WF centre and spread    6  (  2.239297, -1.251256,  5.636120 )     4.38390339
  WF centre and spread    7  (  1.514062, -0.791171,  7.549326 )     4.28025507
  WF centre and spread    8  (  2.194456, -2.123757,  7.544380 )     4.19317246
  WF centre and spread    9  (  2.245195,  1.252616,  4.611818 )     3.70165021
  WF centre and spread   10  (  2.245056, -1.256175,  9.010657 )     1.23454192
  Sum of centres and spreads ( 22.456255, -0.024808, 67.746036 )    32.46721054
 
     34    -0.406E-02     0.0996806418       32.4672105397       1.25  <-- CONV
        O_D=      0.1232566 O_OD=      5.4940074 O_TOT=     32.4672105 <-- SPRD
 Delta: O_D= -0.2018612E-03 O_OD= -0.3862876E-02 O_TOT= -0.4064737E-02 <-- DLTA
 ------------------------------------------------------------------------------
 Cycle:     35
  WF centre and spread    1  (  2.428907,  1.536512,  6.818375 )     2.68083108
  WF centre and spread    2  (  2.680504,  0.940083,  6.200406 )     2.53481481
  WF centre and spread    3  (  2.029243,  1.592367,  6.125298 )     2.68824991
  WF centre and spread    4  (  1.851574,  0.942172,  6.700866 )     2.55906678
  WF centre and spread    5  (  3.026387, -0.863914,  7.549714 )     4.21779338
  WF centre and spread    6  (  2.239474, -1.251148,  5.636955 )     4.38771321
  WF centre and spread    7  (  1.510500, -0.793473,  7.549173 )     4.27226072
  WF centre and spread    8  (  2.199425, -2.123794,  7.544651 )     4.19675510
  WF centre and spread    9  (  2.245040,  1.252516,  4.610709 )     3.69330895
  WF centre and spread   10  (  2.245200, -1.256253,  9.010158 )     1.23336984
  Sum of centres and spreads ( 22.456255, -0.024933, 67.746304 )    32.46416378
 
     35    -0.305E-02     0.0921683410       32.4641637801       1.25  <-- CONV
        O_D=      0.1231362 O_OD=      5.4910811 O_TOT=     32.4641638 <-- SPRD
 Delta: O_D= -0.1204256E-03 O_OD= -0.2926334E-02 O_TOT= -0.3046760E-02 <-- DLTA
 ------------------------------------------------------------------------------
 Cycle:     36
  WF centre and spread    1  (  2.425901,  1.535288,  6.822249 )     2.67990339
  WF centre and spread    2  (  2.683321,  0.940126,  6.203946 )     2.53613588
  WF centre and spread    3  (  2.032595,  1.593990,  6.124591 )     2.69370299
  WF centre and spread    4  (  1.848319,  0.941459,  6.695867 )     2.55958762
  WF centre and spread    5  (  3.023809, -0.859465,  7.549758 )     4.22281302
  WF centre and spread    6  (  2.239709, -1.251035,  5.637826 )     4.39141648
  WF centre and spread    7  (  1.504606, -0.797748,  7.548794 )     4.25981341
[...]
        O_D=      0.1215993 O_OD=      5.2485149 O_TOT=     32.2200606 <-- SPRD
 Delta: O_D= -0.1177566E-10 O_OD= -0.1204992E-10 O_TOT= -0.2382450E-10 <-- DLTA
 ------------------------------------------------------------------------------
 Cycle:   2987
  WF centre and spread    1  (  2.245646,  1.227368,  7.023467 )     2.62704033
  WF centre and spread    2  (  2.757360,  0.966014,  6.289322 )     2.53938109
  WF centre and spread    3  (  2.245551,  1.855889,  6.330362 )     2.56292288
  WF centre and spread    4  (  1.733731,  0.965998,  6.289469 )     2.53933862
  WF centre and spread    5  (  3.007873, -0.827502,  7.545366 )     4.26165624
  WF centre and spread    6  (  2.245571, -1.254076,  5.592120 )     4.53340765
  WF centre and spread    7  (  1.483278, -0.827499,  7.545362 )     4.26166247
  WF centre and spread    8  (  2.245574, -2.126369,  7.543879 )     4.22945957
  WF centre and spread    9  (  2.245572,  1.252887,  4.641487 )     3.42721270
  WF centre and spread   10  (  2.245573, -1.256371,  9.011185 )     1.23797909
  Sum of centres and spreads ( 22.455728, -0.023661, 67.812021 )    32.22006065
 
   2987    -0.433E-12     0.0000287997       32.2200606458      15.95  <-- CONV
        O_D=      0.1215993 O_OD=      5.2485149 O_TOT=     32.2200606 <-- SPRD
 Delta: O_D= -0.2014777E-12 O_OD= -0.2344791E-12 O_TOT= -0.4334311E-12 <-- DLTA
 ------------------------------------------------------------------------------
 Cycle:   2988
  WF centre and spread    1  (  2.245646,  1.227368,  7.023467 )     2.62704033
  WF centre and spread    2  (  2.757360,  0.966014,  6.289322 )     2.53938109
  WF centre and spread    3  (  2.245551,  1.855889,  6.330362 )     2.56292288
  WF centre and spread    4  (  1.733731,  0.965998,  6.289469 )     2.53933862
  WF centre and spread    5  (  3.007873, -0.827502,  7.545366 )     4.26165624
  WF centre and spread    6  (  2.245571, -1.254076,  5.592120 )     4.53340765
  WF centre and spread    7  (  1.483278, -0.827499,  7.545362 )     4.26166247
  WF centre and spread    8  (  2.245574, -2.126369,  7.543879 )     4.22945957
  WF centre and spread    9  (  2.245572,  1.252887,  4.641487 )     3.42721270
  WF centre and spread   10  (  2.245573, -1.256371,  9.011185 )     1.23797909
  Sum of centres and spreads ( 22.455728, -0.023661, 67.812021 )    32.22006065
 
   2988    -0.817E-12     0.0000287996       32.2200606458      15.96  <-- CONV
        O_D=      0.1215993 O_OD=      5.2485149 O_TOT=     32.2200606 <-- SPRD
 Delta: O_D= -0.4017758E-12 O_OD= -0.4130030E-12 O_TOT= -0.8171241E-12 <-- DLTA
 ------------------------------------------------------------------------------
 Cycle:   2989
  WF centre and spread    1  (  2.245646,  1.227368,  7.023467 )     2.62704032
  WF centre and spread    2  (  2.757360,  0.966014,  6.289322 )     2.53938109
  WF centre and spread    3  (  2.245551,  1.855889,  6.330362 )     2.56292288
  WF centre and spread    4  (  1.733731,  0.965998,  6.289469 )     2.53933863
  WF centre and spread    5  (  3.007873, -0.827502,  7.545366 )     4.26165625
  WF centre and spread    6  (  2.245571, -1.254076,  5.592120 )     4.53340765
  WF centre and spread    7  (  1.483278, -0.827499,  7.545362 )     4.26166247
  WF centre and spread    8  (  2.245574, -2.126369,  7.543879 )     4.22945957
  WF centre and spread    9  (  2.245572,  1.252887,  4.641487 )     3.42721271
  WF centre and spread   10  (  2.245573, -1.256371,  9.011185 )     1.23797909
  Sum of centres and spreads ( 22.455728, -0.023661, 67.812021 )    32.22006065
 
   2989    -0.102E-10     0.0000287994       32.2200606458      15.96  <-- CONV
        O_D=      0.1215993 O_OD=      5.2485149 O_TOT=     32.2200606 <-- SPRD
 Delta: O_D= -0.5036707E-11 O_OD= -0.5168310E-11 O_TOT= -0.1021050E-10 <-- DLTA
 ------------------------------------------------------------------------------
 Cycle:   2990
  WF centre and spread    1  (  2.245646,  1.227368,  7.023467 )     2.62704031
  WF centre and spread    2  (  2.757360,  0.966014,  6.289322 )     2.53938109
  WF centre and spread    3  (  2.245551,  1.855889,  6.330363 )     2.56292286
  WF centre and spread    4  (  1.733731,  0.965998,  6.289469 )     2.53933864
  WF centre and spread    5  (  3.007873, -0.827502,  7.545366 )     4.26165625
  WF centre and spread    6  (  2.245571, -1.254076,  5.592120 )     4.53340764
  WF centre and spread    7  (  1.483278, -0.827499,  7.545362 )     4.26166247
  WF centre and spread    8  (  2.245574, -2.126369,  7.543879 )     4.22945957
  WF centre and spread    9  (  2.245572,  1.252887,  4.641487 )     3.42721271
  WF centre and spread   10  (  2.245573, -1.256371,  9.011185 )     1.23797909
  Sum of centres and spreads ( 22.455728, -0.023661, 67.812021 )    32.22006065
 
   2990    -0.399E-10     0.0000287967       32.2200606458      15.97  <-- CONV
        O_D=      0.1215993 O_OD=      5.2485149 O_TOT=     32.2200606 <-- SPRD
 Delta: O_D= -0.1966763E-10 O_OD= -0.2024336E-10 O_TOT= -0.3991119E-10 <-- DLTA
 ------------------------------------------------------------------------------
 Cycle:   2991
  WF centre and spread    1  (  2.245646,  1.227368,  7.023467 )     2.62704031
  WF centre and spread    2  (  2.757360,  0.966014,  6.289322 )     2.53938109
  WF centre and spread    3  (  2.245551,  1.855889,  6.330363 )     2.56292286
  WF centre and spread    4  (  1.733731,  0.965998,  6.289469 )     2.53933865
  WF centre and spread    5  (  3.007873, -0.827502,  7.545366 )     4.26165625
  WF centre and spread    6  (  2.245571, -1.254076,  5.592120 )     4.53340764
  WF centre and spread    7  (  1.483278, -0.827499,  7.545362 )     4.26166247
  WF centre and spread    8  (  2.245574, -2.126369,  7.543879 )     4.22945957
  WF centre and spread    9  (  2.245572,  1.252887,  4.641487 )     3.42721271
  WF centre and spread   10  (  2.245573, -1.256371,  9.011185 )     1.23797909
  Sum of centres and spreads ( 22.455728, -0.023661, 67.812021 )    32.22006065
 
   2991    -0.205E-11     0.0000287861       32.2200606458      15.97  <-- CONV
        O_D=      0.1215993 O_OD=      5.2485149 O_TOT=     32.2200606 <-- SPRD
 Delta: O_D= -0.1004599E-11 O_OD= -0.1050715E-11 O_TOT= -0.2053469E-11 <-- DLTA
 ------------------------------------------------------------------------------
 Cycle:   2992
  WF centre and spread    1  (  2.245646,  1.227368,  7.023467 )     2.62704031
  WF centre and spread    2  (  2.757360,  0.966014,  6.289322 )     2.53938109
  WF centre and spread    3  (  2.245551,  1.855889,  6.330363 )     2.56292286
  WF centre and spread    4  (  1.733731,  0.965998,  6.289469 )     2.53933865
  WF centre and spread    5  (  3.007873, -0.827502,  7.545366 )     4.26165625
  WF centre and spread    6  (  2.245571, -1.254076,  5.592120 )     4.53340764
  WF centre and spread    7  (  1.483278, -0.827499,  7.545362 )     4.26166247
  WF centre and spread    8  (  2.245574, -2.126369,  7.543879 )     4.22945957
  WF centre and spread    9  (  2.245572,  1.252887,  4.641487 )     3.42721272
  WF centre and spread   10  (  2.245573, -1.256371,  9.011185 )     1.23797909
  Sum of centres and spreads ( 22.455728, -0.023661, 67.812021 )    32.22006065
 
   2992    -0.252E-11     0.0000287856       32.2200606458      15.98  <-- CONV
        O_D=      0.1215993 O_OD=      5.2485149 O_TOT=     32.2200606 <-- SPRD
 Delta: O_D= -0.1205133E-11 O_OD= -0.1310951E-11 O_TOT= -0.2515321E-11 <-- DLTA
 ------------------------------------------------------------------------------
 Cycle:   2993
  WF centre and spread    1  (  2.245646,  1.227368,  7.023467 )     2.62704031
  WF centre and spread    2  (  2.757360,  0.966014,  6.289322 )     2.53938109
  WF centre and spread    3  (  2.245551,  1.855889,  6.330363 )     2.56292286
  WF centre and spread    4  (  1.733731,  0.965998,  6.289469 )     2.53933865
  WF centre and spread    5  (  3.007873, -0.827502,  7.545366 )     4.26165625
  WF centre and spread    6  (  2.245571, -1.254076,  5.592120 )     4.53340764
  WF centre and spread    7  (  1.483278, -0.827499,  7.545362 )     4.26166247
  WF centre and spread    8  (  2.245574, -2.126369,  7.543879 )     4.22945957
  WF centre and spread    9  (  2.245572,  1.252887,  4.641487 )     3.42721272
  WF centre and spread   10  (  2.245573, -1.256371,  9.011185 )     1.23797909
  Sum of centres and spreads ( 22.455728, -0.023661, 67.812021 )    32.22006065
 
   2993    -0.344E-11     0.0000287850       32.2200606458      15.98  <-- CONV
        O_D=      0.1215993 O_OD=      5.2485149 O_TOT=     32.2200606 <-- SPRD
 Delta: O_D= -0.1704567E-11 O_OD= -0.1733724E-11 O_TOT= -0.3439027E-11 <-- DLTA
 ------------------------------------------------------------------------------
 Cycle:   2994
  WF centre and spread    1  (  2.245646,  1.227368,  7.023467 )     2.62704031
  WF centre and spread    2  (  2.757360,  0.966014,  6.289322 )     2.53938109
  WF centre and spread    3  (  2.245551,  1.855889,  6.330363 )     2.56292286
  WF centre and spread    4  (  1.733731,  0.965998,  6.289469 )     2.53933865
  WF centre and spread    5  (  3.007873, -0.827502,  7.545366 )     4.26165625
  WF centre and spread    6  (  2.245571, -1.254076,  5.592120 )     4.53340764
  WF centre and spread    7  (  1.483278, -0.827499,  7.545362 )     4.26166247
  WF centre and spread    8  (  2.245574, -2.126369,  7.543879 )     4.22945957
  WF centre and spread    9  (  2.245572,  1.252887,  4.641487 )     3.42721272
  WF centre and spread   10  (  2.245573, -1.256371,  9.011185 )     1.23797909
  Sum of centres and spreads ( 22.455728, -0.023661, 67.812021 )    32.22006065
 
   2994    -0.480E-11     0.0000287841       32.2200606458      15.99  <-- CONV
        O_D=      0.1215993 O_OD=      5.2485149 O_TOT=     32.2200606 <-- SPRD
 Delta: O_D= -0.2363790E-11 O_OD= -0.2441602E-11 O_TOT= -0.4803269E-11 <-- DLTA
 ------------------------------------------------------------------------------
 Cycle:   2995
  WF centre and spread    1  (  2.245646,  1.227368,  7.023467 )     2.62704031
  WF centre and spread    2  (  2.757360,  0.966014,  6.289322 )     2.53938109
  WF centre and spread    3  (  2.245551,  1.855889,  6.330363 )     2.56292286
  WF centre and spread    4  (  1.733731,  0.965998,  6.289469 )     2.53933865
  WF centre and spread    5  (  3.007873, -0.827502,  7.545366 )     4.26165625
  WF centre and spread    6  (  2.245571, -1.254076,  5.592120 )     4.53340764
  WF centre and spread    7  (  1.483278, -0.827499,  7.545362 )     4.26166247
  WF centre and spread    8  (  2.245574, -2.126369,  7.543879 )     4.22945957
  WF centre and spread    9  (  2.245572,  1.252887,  4.641487 )     3.42721272
  WF centre and spread   10  (  2.245573, -1.256371,  9.011185 )     1.23797909
  Sum of centres and spreads ( 22.455728, -0.023661, 67.812021 )    32.22006065
 
   2995    -0.127E-11     0.0000287828       32.2200606458      15.99  <-- CONV
        O_D=      0.1215993 O_OD=      5.2485149 O_TOT=     32.2200606 <-- SPRD
 Delta: O_D= -0.6022682E-12 O_OD= -0.6723511E-12 O_TOT= -0.1271871E-11 <-- DLTA
 ------------------------------------------------------------------------------
 Cycle:   2996
  WF centre and spread    1  (  2.245646,  1.227368,  7.023467 )     2.62704031
  WF centre and spread    2  (  2.757360,  0.966014,  6.289322 )     2.53938109
  WF centre and spread    3  (  2.245551,  1.855889,  6.330363 )     2.56292285
  WF centre and spread    4  (  1.733731,  0.965998,  6.289469 )     2.53933866
  WF centre and spread    5  (  3.007873, -0.827502,  7.545366 )     4.26165625
  WF centre and spread    6  (  2.245571, -1.254076,  5.592120 )     4.53340764
  WF centre and spread    7  (  1.483278, -0.827499,  7.545362 )     4.26166247
  WF centre and spread    8  (  2.245574, -2.126369,  7.543879 )     4.22945957
  WF centre and spread    9  (  2.245572,  1.252887,  4.641487 )     3.42721272
  WF centre and spread   10  (  2.245573, -1.256371,  9.011185 )     1.23797909
  Sum of centres and spreads ( 22.455728, -0.023661, 67.812021 )    32.22006065
 
   2996    -0.178E-10     0.0000287825       32.2200606457      16.00  <-- CONV
        O_D=      0.1215993 O_OD=      5.2485149 O_TOT=     32.2200606 <-- SPRD
 Delta: O_D= -0.8801182E-11 O_OD= -0.9004353E-11 O_TOT= -0.1781331E-10 <-- DLTA
 ------------------------------------------------------------------------------
 Cycle:   2997
  WF centre and spread    1  (  2.245646,  1.227368,  7.023467 )     2.62704028
  WF centre and spread    2  (  2.757360,  0.966014,  6.289322 )     2.53938110
  WF centre and spread    3  (  2.245551,  1.855889,  6.330363 )     2.56292282
  WF centre and spread    4  (  1.733731,  0.965998,  6.289469 )     2.53933871
  WF centre and spread    5  (  3.007873, -0.827502,  7.545366 )     4.26165625
  WF centre and spread    6  (  2.245571, -1.254076,  5.592120 )     4.53340762
  WF centre and spread    7  (  1.483278, -0.827499,  7.545362 )     4.26166247
  WF centre and spread    8  (  2.245574, -2.126369,  7.543879 )     4.22945956
  WF centre and spread    9  (  2.245572,  1.252887,  4.641487 )     3.42721274
  WF centre and spread   10  (  2.245573, -1.256371,  9.011185 )     1.23797909
  Sum of centres and spreads ( 22.455728, -0.023661, 67.812021 )    32.22006065
 
   2997    -0.107E-09     0.0000287777       32.2200606456      16.00  <-- CONV
        O_D=      0.1215993 O_OD=      5.2485149 O_TOT=     32.2200606 <-- SPRD
 Delta: O_D= -0.5300511E-10 O_OD= -0.5443113E-10 O_TOT= -0.1074341E-09 <-- DLTA
 ------------------------------------------------------------------------------
 Cycle:   2998
  WF centre and spread    1  (  2.245646,  1.227368,  7.023467 )     2.62704027
  WF centre and spread    2  (  2.757360,  0.966014,  6.289322 )     2.53938110
  WF centre and spread    3  (  2.245551,  1.855889,  6.330363 )     2.56292280
  WF centre and spread    4  (  1.733731,  0.965998,  6.289468 )     2.53933873
  WF centre and spread    5  (  3.007873, -0.827502,  7.545366 )     4.26165625
  WF centre and spread    6  (  2.245571, -1.254076,  5.592120 )     4.53340762
  WF centre and spread    7  (  1.483278, -0.827499,  7.545362 )     4.26166247
  WF centre and spread    8  (  2.245574, -2.126369,  7.543879 )     4.22945956
  WF centre and spread    9  (  2.245572,  1.252887,  4.641487 )     3.42721276
  WF centre and spread   10  (  2.245573, -1.256371,  9.011185 )     1.23797909
  Sum of centres and spreads ( 22.455728, -0.023661, 67.812021 )    32.22006065
 
   2998    -0.588E-10     0.0000287494       32.2200606456      16.01  <-- CONV
        O_D=      0.1215993 O_OD=      5.2485149 O_TOT=     32.2200606 <-- SPRD
 Delta: O_D= -0.2903366E-10 O_OD= -0.2980904E-10 O_TOT= -0.5884004E-10 <-- DLTA
 ------------------------------------------------------------------------------
 Cycle:   2999
  WF centre and spread    1  (  2.245646,  1.227368,  7.023467 )     2.62704027
  WF centre and spread    2  (  2.757360,  0.966014,  6.289322 )     2.53938110
  WF centre and spread    3  (  2.245551,  1.855889,  6.330363 )     2.56292280
  WF centre and spread    4  (  1.733731,  0.965998,  6.289468 )     2.53933874
  WF centre and spread    5  (  3.007873, -0.827502,  7.545366 )     4.26165625
  WF centre and spread    6  (  2.245571, -1.254076,  5.592120 )     4.53340761
  WF centre and spread    7  (  1.483278, -0.827499,  7.545362 )     4.26166247
  WF centre and spread    8  (  2.245574, -2.126369,  7.543879 )     4.22945956
  WF centre and spread    9  (  2.245572,  1.252887,  4.641487 )     3.42721276
  WF centre and spread   10  (  2.245573, -1.256371,  9.011185 )     1.23797909
  Sum of centres and spreads ( 22.455728, -0.023661, 67.812021 )    32.22006065
 
   2999    -0.360E-11     0.0000287338       32.2200606456      16.02  <-- CONV
        O_D=      0.1215993 O_OD=      5.2485149 O_TOT=     32.2200606 <-- SPRD
 Delta: O_D= -0.1804529E-11 O_OD= -0.1790568E-11 O_TOT= -0.3595346E-11 <-- DLTA
 ------------------------------------------------------------------------------
 Cycle:   3000
  WF centre and spread    1  (  2.245646,  1.227368,  7.023467 )     2.62704027
  WF centre and spread    2  (  2.757360,  0.966014,  6.289322 )     2.53938110
  WF centre and spread    3  (  2.245551,  1.855889,  6.330363 )     2.56292279
  WF centre and spread    4  (  1.733731,  0.965998,  6.289468 )     2.53933874
  WF centre and spread    5  (  3.007873, -0.827502,  7.545366 )     4.26165625
  WF centre and spread    6  (  2.245571, -1.254076,  5.592120 )     4.53340761
  WF centre and spread    7  (  1.483278, -0.827499,  7.545362 )     4.26166247
  WF centre and spread    8  (  2.245574, -2.126369,  7.543879 )     4.22945956
  WF centre and spread    9  (  2.245572,  1.252887,  4.641487 )     3.42721276
  WF centre and spread   10  (  2.245573, -1.256371,  9.011185 )     1.23797909
  Sum of centres and spreads ( 22.455728, -0.023661, 67.812021 )    32.22006065
 
   3000    -0.810E-12     0.0000287328       32.2200606456      16.02  <-- CONV
        O_D=      0.1215993 O_OD=      5.2485149 O_TOT=     32.2200606 <-- SPRD
 Delta: O_D= -0.4009848E-12 O_OD= -0.4121148E-12 O_TOT= -0.8100187E-12 <-- DLTA
 ------------------------------------------------------------------------------

 Writing checkpoint file wannier90.chk... done

 Final State
  WF centre and spread    1  (  2.245646,  1.227368,  7.023467 )     2.62704027
  WF centre and spread    2  (  2.757360,  0.966014,  6.289322 )     2.53938110
  WF centre and spread    3  (  2.245551,  1.855889,  6.330363 )     2.56292279
  WF centre and spread    4  (  1.733731,  0.965998,  6.289468 )     2.53933874
  WF centre and spread    5  (  3.007873, -0.827502,  7.545366 )     4.26165625
  WF centre and spread    6  (  2.245571, -1.254076,  5.592120 )     4.53340761
  WF centre and spread    7  (  1.483278, -0.827499,  7.545362 )     4.26166247
  WF centre and spread    8  (  2.245574, -2.126369,  7.543879 )     4.22945956
  WF centre and spread    9  (  2.245572,  1.252887,  4.641487 )     3.42721276
  WF centre and spread   10  (  2.245573, -1.256371,  9.011185 )     1.23797909
  Sum of centres and spreads ( 22.455728, -0.023661, 67.812021 )    32.22006065
 
         Spreads (Ang^2)       Omega I      =    26.849946482
        ================       Omega D      =     0.121599275
                               Omega OD     =     5.248514889
    Final Spread (Ang^2)       Omega Total  =    32.220060646
 ------------------------------------------------------------------------------
 Time for wannierise           14.978 (sec)

 Writing checkpoint file wannier90.chk... done

 *---------------------------------------------------------------------------*
 |                               PLOTTING                                    |
 *---------------------------------------------------------------------------*
 
 
 Calculating interpolated band-structure
 
 Time to calculate interpolated band structure       0.019 (sec)
 
 Time for plotting              0.180 (sec)
 Total Execution Time          16.202 (sec)

 *===========================================================================*
 |                             TIMING INFORMATION                            |
 *===========================================================================*
 |    Tag                                                Ncalls      Time (s)|
 |---------------------------------------------------------------------------|
 |kmesh: get                                        :         1         0.017|
 |overlap: read                                     :         1         0.085|
 |dis: main                                         :         1         0.926|
 |wann: main                                        :         1        14.978|
 |plot: main                                        :         1         0.180|
 *---------------------------------------------------------------------------*
 
 All done: wannier90 exiting
