written on 20Aug2017 at 05:10:59 
16
8
17
18
19
20
21
22
23
24
   2.1871337999999998       2.1871337999999998       0.0000000000000000      -3.7351977000000001       3.7351977000000001       0.0000000000000000       0.0000000000000000       0.0000000000000000       13.941769600000001    
   1.4363971027240279       1.4363971027240279       0.0000000000000000     -0.84107801136999871      0.84107801136999871       0.0000000000000000       0.0000000000000000       0.0000000000000000      0.45067344300249984    
64
8 8 1
   0.0000000000000000       0.0000000000000000       0.0000000000000000    
  0.12500000000000000       0.0000000000000000       0.0000000000000000    
  0.25000000000000000       0.0000000000000000       0.0000000000000000    
  0.37500000000000000       0.0000000000000000       0.0000000000000000    
  0.50000000000000000       0.0000000000000000       0.0000000000000000    
  0.12500000000000000      0.12500000000000000       0.0000000000000000    
  0.25000000000000000      0.12500000000000000       0.0000000000000000    
  0.37500000000000000      0.12500000000000000       0.0000000000000000    
  0.50000000000000000      0.12500000000000000       0.0000000000000000    
 -0.37500000000000000      0.12500000000000000       0.0000000000000000    
 -0.25000000000000000      0.12500000000000000       0.0000000000000000    
 -0.12500000000000000      0.12500000000000000       0.0000000000000000    
  0.25000000000000000      0.25000000000000000       0.0000000000000000    
  0.37500000000000000      0.25000000000000000       0.0000000000000000    
  0.50000000000000000      0.25000000000000000       0.0000000000000000    
 -0.37500000000000000      0.25000000000000000       0.0000000000000000    
 -0.25000000000000000      0.25000000000000000       0.0000000000000000    
  0.37500000000000000      0.37500000000000000       0.0000000000000000    
  0.50000000000000000      0.37500000000000000       0.0000000000000000    
 -0.37500000000000000      0.37500000000000000       0.0000000000000000    
  0.50000000000000000      0.50000000000000000       0.0000000000000000    
   0.0000000000000000     -0.12500000000000000       0.0000000000000000    
   0.0000000000000000     -0.25000000000000000       0.0000000000000000    
   0.0000000000000000     -0.37500000000000000       0.0000000000000000    
   0.0000000000000000     -0.50000000000000000       0.0000000000000000    
 -0.12500000000000000     -0.12500000000000000       0.0000000000000000    
 -0.12500000000000000     -0.25000000000000000       0.0000000000000000    
 -0.12500000000000000     -0.37500000000000000       0.0000000000000000    
 -0.12500000000000000     -0.50000000000000000       0.0000000000000000    
 -0.12500000000000000      0.37500000000000000       0.0000000000000000    
 -0.12500000000000000      0.25000000000000000       0.0000000000000000    
 -0.25000000000000000     -0.25000000000000000       0.0000000000000000    
 -0.25000000000000000     -0.37500000000000000       0.0000000000000000    
 -0.25000000000000000     -0.50000000000000000       0.0000000000000000    
 -0.25000000000000000      0.37500000000000000       0.0000000000000000    
 -0.37500000000000000     -0.37500000000000000       0.0000000000000000    
 -0.37500000000000000     -0.50000000000000000       0.0000000000000000    
 -0.12500000000000000       0.0000000000000000       0.0000000000000000    
   0.0000000000000000      0.12500000000000000       0.0000000000000000    
 -0.25000000000000000       0.0000000000000000       0.0000000000000000    
   0.0000000000000000      0.25000000000000000       0.0000000000000000    
 -0.37500000000000000       0.0000000000000000       0.0000000000000000    
   0.0000000000000000      0.37500000000000000       0.0000000000000000    
 -0.25000000000000000     -0.12500000000000000       0.0000000000000000    
  0.12500000000000000      0.25000000000000000       0.0000000000000000    
 -0.37500000000000000     -0.12500000000000000       0.0000000000000000    
  0.12500000000000000      0.37500000000000000       0.0000000000000000    
 -0.50000000000000000     -0.12500000000000000       0.0000000000000000    
  0.12500000000000000      0.50000000000000000       0.0000000000000000    
  0.37500000000000000     -0.12500000000000000       0.0000000000000000    
  0.12500000000000000     -0.37500000000000000       0.0000000000000000    
  0.25000000000000000     -0.12500000000000000       0.0000000000000000    
  0.12500000000000000     -0.25000000000000000       0.0000000000000000    
  0.12500000000000000     -0.12500000000000000       0.0000000000000000    
 -0.37500000000000000     -0.25000000000000000       0.0000000000000000    
  0.25000000000000000      0.37500000000000000       0.0000000000000000    
 -0.50000000000000000     -0.25000000000000000       0.0000000000000000    
  0.25000000000000000      0.50000000000000000       0.0000000000000000    
  0.37500000000000000     -0.25000000000000000       0.0000000000000000    
  0.25000000000000000     -0.37500000000000000       0.0000000000000000    
  0.25000000000000000     -0.25000000000000000       0.0000000000000000    
 -0.50000000000000000     -0.37500000000000000       0.0000000000000000    
  0.37500000000000000      0.50000000000000000       0.0000000000000000    
  0.37500000000000000     -0.37500000000000000       0.0000000000000000    
8
10
postwann            
1
   26.849946481699071    
1
1
1
1
1
1
1
1
1
1
1
1
1
1
1
1
1
1
1
1
1
1
1
1
1
1
1
1
1
1
1
1
1
1
1
1
1
1
1
1
1
1
1
1
1
1
1
1
1
1
1
1
1
1
1
1
1
1
1
1
1
1
1
1
1
1
1
1
1
1
1
1
1
1
1
1
1
1
1
1
1
1
1
1
1
1
1
1
1
1
1
1
1
1
1
1
1
1
1
1
1
1
1
1
1
1
1
1
1
1
1
1
1
1
1
1
1
1
1
1
1
1
1
1
1
1
1
1
1
1
1
1
1
1
1
1
1
1
1
1
1
1
1
1
1
1
1
1
1
1
1
1
1
1
1
1
1
1
1
1
1
1
1
1
1
1
1
1
1
1
1
1
1
1
1
1
1
1
1
1
1
1
1
1
1
1
1
1
1
1
1
1
1
1
1
1
1
1
1
1
1
1
1
1
1
1
1
1
1
1
1
1
1
1
1
1
1
1
1
1
1
1
1
1
1
1
1
1
1
1
1
1
1
1
1
1
1
1
1
1
1
1
1
1
1
1
1
1
1
1
1
1
1
1
1
1
1
1
1
1
1
1
1
1
1
1
1
1
1
1
1
1
1
1
1
1
1
1
1
1
1
1
1
1
1
1
1
1
1
1
1
1
1
1
1
1
1
1
1
1
1
1
1
1
1
1
1
1
1
1
1
1
1
1
1
1
1
1
1
1
1
1
1
1
1
1
1
1
1
1
1
1
1
1
1
1
1
1
1
1
1
1
1
1
1
1
1
1
1
1
1
1
1
1
1
1
1
1
1
1
1
1
1
1
1
1
1
1
1
1
1
1
1
1
1
1
1
1
1
1
1
1
1
1
1
1
1
1
1
1
1
1
1
1
1
1
1
1
1
1
1
1
1
1
1
1
1
1
1
1
1
1
1
1
1
1
1
1
1
1
1
1
1
1
1
1
1
1
1
1
1
1
1
1
1
1
1
1
1
1
1
1
1
1
1
1
1
1
1
1
1
1
1
1
1
1
1
1
1
1
1
1
1
1
1
1
1
1
1
1
1
1
1
1
1
1
1
1
1
1
1
1
1
1
1
1
1
1
1
1
1
1
1
1
1
1
1
1
1
1
1
1
1
1
1
1
1
1
1
1
1
1
1
1
1
1
1
1
1
1
1
1
1
1
1
1
1
1
1
1
1
1
1
1
1
1
1
1
1
1
1
1
1
1
1
1
1
1
1
1
1
1
1
1
1
1
1
1
1
1
1
1
1
1
1
1
1
1
1
1
1
1
1
1
1
1
1
1
1
1
1
1
1
1
1
1
1
1
1
1
1
1
1
1
1
1
1
1
1
1
1
1
1
1
1
1
1
1
1
1
1
1
1
1
1
1
1
1
1
1
1
1
1
1
1
1
1
1
1
1
1
1
1
1
1
1
1
1
1
1
1
1
1
1
1
1
1
1
1
1
1
1
1
1
1
1
1
1
1
1
1
1
1
1
1
1
1
1
1
1
1
1
1
1
1
1
1
1
1
1
1
1
1
1
1
1
1
1
1
1
1
1
1
1
1
1
1
1
1
1
1
1
1
1
1
1
1
1
1
1
1
1
1
1
1
1
1
1
1
1
1
1
1
1
1
1
1
1
1
1
1
1
1
1
1
1
1
1
1
1
1
1
1
1
1
1
1
1
1
1
1
1
1
1
1
1
1
1
1
1
1
1
1
1
1
1
1
1
1
1
1
1
1
1
1
1
1
1
1
1
1
1
1
1
1
1
1
1
1
1
1
1
1
1
1
1
1
1
1
1
1
1
1
1
1
1
1
1
1
1
1
1
1
1
1
1
1
1
1
1
1
1
1
1
1
1
1
1
1
1
1
1
1
1
1
1
1
1
1
1
1
1
1
1
1
1
1
1
1
1
1
1
1
1
1
1
1
1
1
1
1
1
1
1
1
1
1
1
1
1
1
1
1
1
1
1
1
1
1
1
1
1
1
1
1
1
1
1
1
1
1
1
1
1
1
1
1
1
1
1
1
1
1
1
1
1
1
1
1
1
1
1
1
1
1
1
1
1
1
1
1
1
1
1
1
1
1
1
1
1
1
1
1
1
1
1
1
1
1
1
1
1
1
1
1
1
1
1
1
1
1
1
1
1
1
1
1
1
1
1
1
1
1
1
1
1
1
1
1
1
1
1
1
1
1
1
1
1
1
1
1
1
1
1
1
1
1
1
1
1
1
1
1
1
1
1
1
1
1
1
1
1
1
1
1
1
1
1
1
1
1
1
1
1
1
1
1
1
1
1
1
1
1
1
16
16
16
16
16
16
16
16
16
16
16
16
16
16
16
16
16
16
16
16
16
16
16
16
16
16
16
16
16
16
16
16
16
16
16
16
16
16
16
16
16
16
16
16
16
16
16
16
16
16
16
16
16
16
16
16
16
16
16
16
16
16
16
16
   1.0000000000000000       0.0000000000000000    
   0.0000000000000000       0.0000000000000000    
   0.0000000000000000       0.0000000000000000    
   0.0000000000000000       0.0000000000000000    
   0.0000000000000000       0.0000000000000000    
   0.0000000000000000       0.0000000000000000    
   0.0000000000000000       0.0000000000000000    
   0.0000000000000000       0.0000000000000000    
   0.0000000000000000       0.0000000000000000    
   0.0000000000000000       0.0000000000000000    
   0.0000000000000000       0.0000000000000000    
   0.0000000000000000       0.0000000000000000    
   0.0000000000000000       0.0000000000000000    
   0.0000000000000000       0.0000000000000000    
   0.0000000000000000       0.0000000000000000    
   0.0000000000000000       0.0000000000000000    
   0.0000000000000000       0.0000000000000000    
   1.0000000000000000       0.0000000000000000    
   0.0000000000000000       0.0000000000000000    
   0.0000000000000000       0.0000000000000000    
   0.0000000000000000       0.0000000000000000    
   0.0000000000000000       0.0000000000000000    
   0.0000000000000000       0.0000000000000000    
   0.0000000000000000       0.0000000000000000    
   0.0000000000000000       0.0000000000000000    
   0.0000000000000000       0.0000000000000000    
   0.0000000000000000       0.0000000000000000    
   0.0000000000000000       0.0000000000000000    
   0.0000000000000000       0.0000000000000000    
   0.0000000000000000       0.0000000000000000    
   0.0000000000000000       0.0000000000000000    
   0.0000000000000000       0.0000000000000000    
   0.0000000000000000       0.0000000000000000    
   0.0000000000000000       0.0000000000000000    
   1.0000000000000000       0.0000000000000000    
   0.0000000000000000       0.0000000000000000    
   0.0000000000000000       0.0000000000000000    
   0.0000000000000000       0.0000000000000000    
   0.0000000000000000       0.0000000000000000    
   0.0000000000000000       0.0000000000000000    
   0.0000000000000000       0.0000000000000000    
   0.0000000000000000       0.0000000000000000    
   0.0000000000000000       0.0000000000000000    
   0.0000000000000000       0.0000000000000000    
   0.0000000000000000       0.0000000000000000    
   0.0000000000000000       0.0000000000000000    
   0.0000000000000000       0.0000000000000000    
   0.0000000000000000       0.0000000000000000    
   0.0000000000000000       0.0000000000000000    
   0.0000000000000000       0.0000000000000000    
   0.0000000000000000       0.0000000000000000    
   1.0000000000000000       0.0000000000000000    
   0.0000000000000000       0.0000000000000000    
   0.0000000000000000       0.0000000000000000    
   0.0000000000000000       0.0000000000000000    
   0.0000000000000000       0.0000000000000000    
   0.0000000000000000       0.0000000000000000    
   0.0000000000000000       0.0000000000000000    
   0.0000000000000000       0.0000000000000000    
   0.0000000000000000       0.0000000000000000    
   0.0000000000000000       0.0000000000000000    
   0.0000000000000000       0.0000000000000000    
   0.0000000000000000       0.0000000000000000    
   0.0000000000000000       0.0000000000000000    
   0.0000000000000000       0.0000000000000000    
   0.0000000000000000       0.0000000000000000    
   0.0000000000000000       0.0000000000000000    
   0.0000000000000000       0.0000000000000000    
   1.0000000000000000       0.0000000000000000    
   0.0000000000000000       0.0000000000000000    
   0.0000000000000000       0.0000000000000000    
   0.0000000000000000       0.0000000000000000    
   0.0000000000000000       0.0000000000000000    
   0.0000000000000000       0.0000000000000000    
   0.0000000000000000       0.0000000000000000    
   0.0000000000000000       0.0000000000000000    
   0.0000000000000000       0.0000000000000000    
   0.0000000000000000       0.0000000000000000    
   0.0000000000000000       0.0000000000000000    
   0.0000000000000000       0.0000000000000000    
   0.0000000000000000       0.0000000000000000    
   0.0000000000000000       0.0000000000000000    
   0.0000000000000000       0.0000000000000000    
   0.0000000000000000       0.0000000000000000    
   0.0000000000000000       0.0000000000000000    
   1.0000000000000000       0.0000000000000000    
   0.0000000000000000       0.0000000000000000    
   0.0000000000000000       0.0000000000000000    
   0.0000000000000000       0.0000000000000000    
   0.0000000000000000       0.0000000000000000    
   0.0000000000000000       0.0000000000000000    
   0.0000000000000000       0.0000000000000000    
   0.0000000000000000       0.0000000000000000    
   0.0000000000000000       0.0000000000000000    
   0.0000000000000000       0.0000000000000000    
   0.0000000000000000       0.0000000000000000    
   0.0000000000000000       0.0000000000000000    
   0.0000000000000000       0.0000000000000000    
   0.0000000000000000       0.0000000000000000    
   0.0000000000000000       0.0000000000000000    
   0.0000000000000000       0.0000000000000000    
   0.0000000000000000       0.0000000000000000    
   1.0000000000000000       0.0000000000000000    
   0.0000000000000000       0.0000000000000000    
   0.0000000000000000       0.0000000000000000    
   0.0000000000000000       0.0000000000000000    
   0.0000000000000000       0.0000000000000000    
   0.0000000000000000       0.0000000000000000    
   0.0000000000000000       0.0000000000000000    
   0.0000000000000000       0.0000000000000000    
   0.0000000000000000       0.0000000000000000    
   0.0000000000000000       0.0000000000000000    
   0.0000000000000000       0.0000000000000000    
   0.0000000000000000       0.0000000000000000    
   0.0000000000000000       0.0000000000000000    
   0.0000000000000000       0.0000000000000000    
   0.0000000000000000       0.0000000000000000    
   0.0000000000000000       0.0000000000000000    
   0.0000000000000000       0.0000000000000000    
  0.97292452749698405E-05 -0.88684722277290379E-05
 -0.99638409471400557     -0.17157515850937874E-01
 -0.57044201907512693E-04  0.69712681342091361E-04
 -0.29553142992905609E-05  0.16981968037408342E-06
  0.33192950202108886E-05 -0.28227597533657555E-06
  0.76192451711189724E-06 -0.11012038696099822E-05
  0.58334829136565254E-05 -0.14219416610001130E-05
 -0.47746107170280022E-01 -0.68151701264394543E-01
 -0.33628365652150591E-04 -0.28980180042738443E-04
   0.0000000000000000       0.0000000000000000    
   0.0000000000000000       0.0000000000000000    
   0.0000000000000000       0.0000000000000000    
   0.0000000000000000       0.0000000000000000    
   0.0000000000000000       0.0000000000000000    
   0.0000000000000000       0.0000000000000000    
   0.0000000000000000       0.0000000000000000    
  0.50333834242596723E-03 -0.55813390844251321E-04
  0.46867150169529993E-04  0.75913709231058719E-04
 -0.99321456865465518     -0.11549325412721070    
 -0.10328221070723054E-01  0.12733710612872464E-03
  0.40122737713985859E-02  0.13310540817050636E-02
  0.34340853325296743E-02 -0.73999757298734038E-04
 -0.65803201298392094E-02  0.91255911514526123E-04
 -0.42743039686962415E-05  0.13300503853691052E-04
 -0.24896733476144997E-02  0.98208777290265611E-06
   0.0000000000000000       0.0000000000000000    
   0.0000000000000000       0.0000000000000000    
   0.0000000000000000       0.0000000000000000    
   0.0000000000000000       0.0000000000000000    
   0.0000000000000000       0.0000000000000000    
   0.0000000000000000       0.0000000000000000    
   0.0000000000000000       0.0000000000000000    
 -0.59429282943967088      0.65080096160882478E-01
 -0.64650057267414585E-05 -0.42304074940750002E-05
 -0.32214573433191479E-02 -0.37613392638039716E-03
  0.51779893026733836     -0.61937126916047445E-02
  0.56634770395731548      0.18811211068116326    
 -0.12011616946028322      0.25278015009637671E-02
 -0.55671095196389575E-01  0.74645115250682225E-03
 -0.15017234280655652E-04 -0.19894519008487168E-06
  0.27313004400956301E-01  0.47939746776759868E-08
   1.0000000000000000       0.0000000000000000    
   0.0000000000000000       0.0000000000000000    
   0.0000000000000000       0.0000000000000000    
   0.0000000000000000       0.0000000000000000    
   0.0000000000000000       0.0000000000000000    
   0.0000000000000000       0.0000000000000000    
   0.0000000000000000       0.0000000000000000    
   0.0000000000000000       0.0000000000000000    
   0.0000000000000000       0.0000000000000000    
   0.0000000000000000       0.0000000000000000    
   0.0000000000000000       0.0000000000000000    
   0.0000000000000000       0.0000000000000000    
   0.0000000000000000       0.0000000000000000    
   0.0000000000000000       0.0000000000000000    
   0.0000000000000000       0.0000000000000000    
   0.0000000000000000       0.0000000000000000    
   0.0000000000000000       0.0000000000000000    
   1.0000000000000000       0.0000000000000000    
   0.0000000000000000       0.0000000000000000    
   0.0000000000000000       0.0000000000000000    
   0.0000000000000000       0.0000000000000000    
   0.0000000000000000       0.0000000000000000    
   0.0000000000000000       0.0000000000000000    
   0.0000000000000000       0.0000000000000000    
   0.0000000000000000       0.0000000000000000    
   0.0000000000000000       0.0000000000000000    
   0.0000000000000000       0.0000000000000000    
   0.0000000000000000       0.0000000000000000    
   0.0000000000000000       0.0000000000000000    
   0.0000000000000000       0.0000000000000000    
   0.0000000000000000       0.0000000000000000    
   0.0000000000000000       0.0000000000000000    
   0.0000000000000000       0.0000000000000000    
   0.0000000000000000       0.0000000000000000    
   1.0000000000000000       0.0000000000000000    
   0.0000000000000000       0.0000000000000000    
   0.0000000000000000       0.0000000000000000    
   0.0000000000000000       0.0000000000000000    
   0.0000000000000000       0.0000000000000000    
   0.0000000000000000       0.0000000000000000    
   0.0000000000000000       0.0000000000000000    
   0.0000000000000000       0.0000000000000000    
   0.0000000000000000       0.0000000000000000    
   0.0000000000000000       0.0000000000000000    
   0.0000000000000000       0.0000000000000000    
   0.0000000000000000       0.0000000000000000    
   0.0000000000000000       0.0000000000000000    
   0.0000000000000000       0.0000000000000000    
   0.0000000000000000       0.0000000000000000    
   0.0000000000000000       0.0000000000000000    
   0.0000000000000000       0.0000000000000000    
   1.0000000000000000       0.0000000000000000    
   0.0000000000000000       0.0000000000000000    
   0.0000000000000000       0.0000000000000000    
   0.0000000000000000       0.0000000000000000    
   0.0000000000000000       0.0000000000000000    
   0.0000000000000000       0.0000000000000000    
   0.0000000000000000       0.0000000000000000    
   0.0000000000000000       0.0000000000000000    
   0.0000000000000000       0.0000000000000000    
   0.0000000000000000       0.0000000000000000    
   0.0000000000000000       0.0000000000000000    
   0.0000000000000000       0.0000000000000000    
   0.0000000000000000       0.0000000000000000    
   0.0000000000000000       0.0000000000000000    
   0.0000000000000000       0.0000000000000000    
   0.0000000000000000       0.0000000000000000    
   0.0000000000000000       0.0000000000000000    
   1.0000000000000000       0.0000000000000000    
   0.0000000000000000       0.0000000000000000    
   0.0000000000000000       0.0000000000000000    
   0.0000000000000000       0.0000000000000000    
   0.0000000000000000       0.0000000000000000    
   0.0000000000000000       0.0000000000000000    
   0.0000000000000000       0.0000000000000000    
   0.0000000000000000       0.0000000000000000    
   0.0000000000000000       0.0000000000000000    
   0.0000000000000000       0.0000000000000000    
   0.0000000000000000       0.0000000000000000    
   0.0000000000000000       0.0000000000000000    
   0.0000000000000000       0.0000000000000000    
   0.0000000000000000       0.0000000000000000    
   0.0000000000000000       0.0000000000000000    
   0.0000000000000000       0.0000000000000000    
   0.0000000000000000       0.0000000000000000    
   1.0000000000000000       0.0000000000000000    
   0.0000000000000000       0.0000000000000000    
   0.0000000000000000       0.0000000000000000    
   0.0000000000000000       0.0000000000000000    
   0.0000000000000000       0.0000000000000000    
   0.0000000000000000       0.0000000000000000    
   0.0000000000000000       0.0000000000000000    
   0.0000000000000000       0.0000000000000000    
   0.0000000000000000       0.0000000000000000    
   0.0000000000000000       0.0000000000000000    
   0.0000000000000000       0.0000000000000000    
   0.0000000000000000       0.0000000000000000    
   0.0000000000000000       0.0000000000000000    
   0.0000000000000000       0.0000000000000000    
   0.0000000000000000       0.0000000000000000    
   0.0000000000000000       0.0000000000000000    
   0.0000000000000000       0.0000000000000000    
   1.0000000000000000       0.0000000000000000    
   0.0000000000000000       0.0000000000000000    
   0.0000000000000000       0.0000000000000000    
   0.0000000000000000       0.0000000000000000    
   0.0000000000000000       0.0000000000000000    
   0.0000000000000000       0.0000000000000000    
   0.0000000000000000       0.0000000000000000    
   0.0000000000000000       0.0000000000000000    
   0.0000000000000000       0.0000000000000000    
   0.0000000000000000       0.0000000000000000    
   0.0000000000000000       0.0000000000000000    
   0.0000000000000000       0.0000000000000000    
   0.0000000000000000       0.0000000000000000    
   0.0000000000000000       0.0000000000000000    
   0.0000000000000000       0.0000000000000000    
   0.0000000000000000       0.0000000000000000    
   0.0000000000000000       0.0000000000000000    
   1.0000000000000000       0.0000000000000000    
   0.0000000000000000       0.0000000000000000    
   0.0000000000000000       0.0000000000000000    
   0.0000000000000000       0.0000000000000000    
   0.0000000000000000       0.0000000000000000    
   0.0000000000000000       0.0000000000000000    
   0.0000000000000000       0.0000000000000000    
   0.0000000000000000       0.0000000000000000    
   0.0000000000000000       0.0000000000000000    
   0.0000000000000000       0.0000000000000000    
   0.0000000000000000       0.0000000000000000    
   0.0000000000000000       0.0000000000000000    
   0.0000000000000000       0.0000000000000000    
   0.0000000000000000       0.0000000000000000    
   0.0000000000000000       0.0000000000000000    
   0.0000000000000000       0.0000000000000000    
   0.0000000000000000       0.0000000000000000    
 -0.85569007630258015E-01 -0.15404872358155377E-01
  0.53897688193556970     -0.82800331317359199    
 -0.59251424726230607E-01 -0.49630950002164130E-01
  0.46586915629985619E-01  0.48721233910004082E-02
  0.11345016819458278E-01  0.16807264429520579E-02
 -0.17198375030826059E-01 -0.18024088308810689E-03
  0.62369548791052554E-01  0.62062104081915308E-01
  0.20261528910559589E-02 -0.37291574664263601E-02
   0.0000000000000000       0.0000000000000000    
   0.0000000000000000       0.0000000000000000    
   0.0000000000000000       0.0000000000000000    
   0.0000000000000000       0.0000000000000000    
   0.0000000000000000       0.0000000000000000    
   0.0000000000000000       0.0000000000000000    
   0.0000000000000000       0.0000000000000000    
   0.0000000000000000       0.0000000000000000    
  0.63934245380109123      0.12657793110240739    
  0.60137090194707588E-01 -0.10254241141441620    
  0.53256702821454405      0.21680010095008209    
 -0.41569238639082429     -0.21285853133008967    
 -0.38343934157215584E-01 -0.23983871315900997E-01
 -0.79066050668685717E-01 -0.56785191166568716E-01
  0.96475846256085518E-02  0.81788430345494552E-02
  0.25832790375683531E-01 -0.46529337235396670E-03
   1.0000000000000000       0.0000000000000000    
   0.0000000000000000       0.0000000000000000    
   0.0000000000000000       0.0000000000000000    
   0.0000000000000000       0.0000000000000000    
   0.0000000000000000       0.0000000000000000    
   0.0000000000000000       0.0000000000000000    
   0.0000000000000000       0.0000000000000000    
   0.0000000000000000       0.0000000000000000    
   0.0000000000000000       0.0000000000000000    
   0.0000000000000000       0.0000000000000000    
   0.0000000000000000       0.0000000000000000    
   0.0000000000000000       0.0000000000000000    
   0.0000000000000000       0.0000000000000000    
   0.0000000000000000       0.0000000000000000    
   0.0000000000000000       0.0000000000000000    
   0.0000000000000000       0.0000000000000000    
   0.0000000000000000       0.0000000000000000    
   1.0000000000000000       0.0000000000000000    
   0.0000000000000000       0.0000000000000000    
   0.0000000000000000       0.0000000000000000    
   0.0000000000000000       0.0000000000000000    
   0.0000000000000000       0.0000000000000000    
   0.0000000000000000       0.0000000000000000    
   0.0000000000000000       0.0000000000000000    
   0.0000000000000000       0.0000000000000000    
   0.0000000000000000       0.0000000000000000    
   0.0000000000000000       0.0000000000000000    
   0.0000000000000000       0.0000000000000000    
   0.0000000000000000       0.0000000000000000    
   0.0000000000000000       0.0000000000000000    
   0.0000000000000000       0.0000000000000000    
   0.0000000000000000       0.0000000000000000    
   0.0000000000000000       0.0000000000000000    
   0.0000000000000000       0.0000000000000000    
   1.0000000000000000       0.0000000000000000    
   0.0000000000000000       0.0000000000000000    
   0.0000000000000000       0.0000000000000000    
   0.0000000000000000       0.0000000000000000    
   0.0000000000000000       0.0000000000000000    
   0.0000000000000000       0.0000000000000000    
   0.0000000000000000       0.0000000000000000    
   0.0000000000000000       0.0000000000000000    
   0.0000000000000000       0.0000000000000000    
   0.0000000000000000       0.0000000000000000    
   0.0000000000000000       0.0000000000000000    
   0.0000000000000000       0.0000000000000000    
   0.0000000000000000       0.0000000000000000    
   0.0000000000000000       0.0000000000000000    
   0.0000000000000000       0.0000000000000000    
   0.0000000000000000       0.0000000000000000    
   0.0000000000000000       0.0000000000000000    
   1.0000000000000000       0.0000000000000000    
   0.0000000000000000       0.0000000000000000    
   0.0000000000000000       0.0000000000000000    
   0.0000000000000000       0.0000000000000000    
   0.0000000000000000       0.0000000000000000    
   0.0000000000000000       0.0000000000000000    
   0.0000000000000000       0.0000000000000000    
   0.0000000000000000       0.0000000000000000    
   0.0000000000000000       0.0000000000000000    
   0.0000000000000000       0.0000000000000000    
   0.0000000000000000       0.0000000000000000    
   0.0000000000000000       0.0000000000000000    
   0.0000000000000000       0.0000000000000000    
   0.0000000000000000       0.0000000000000000    
   0.0000000000000000       0.0000000000000000    
   0.0000000000000000       0.0000000000000000    
   0.0000000000000000       0.0000000000000000    
   1.0000000000000000       0.0000000000000000    
   0.0000000000000000       0.0000000000000000    
   0.0000000000000000       0.0000000000000000    
   0.0000000000000000       0.0000000000000000    
   0.0000000000000000       0.0000000000000000    
   0.0000000000000000       0.0000000000000000    
   0.0000000000000000       0.0000000000000000    
   0.0000000000000000       0.0000000000000000    
   0.0000000000000000       0.0000000000000000    
   0.0000000000000000       0.0000000000000000    
   0.0000000000000000       0.0000000000000000    
   0.0000000000000000       0.0000000000000000    
   0.0000000000000000       0.0000000000000000    
   0.0000000000000000       0.0000000000000000    
   0.0000000000000000       0.0000000000000000    
   0.0000000000000000       0.0000000000000000    
   0.0000000000000000       0.0000000000000000    
   1.0000000000000000       0.0000000000000000    
   0.0000000000000000       0.0000000000000000    
   0.0000000000000000       0.0000000000000000    
   0.0000000000000000       0.0000000000000000    
   0.0000000000000000       0.0000000000000000    
   0.0000000000000000       0.0000000000000000    
   0.0000000000000000       0.0000000000000000    
   0.0000000000000000       0.0000000000000000    
   0.0000000000000000       0.0000000000000000    
   0.0000000000000000       0.0000000000000000    
   0.0000000000000000       0.0000000000000000    
   0.0000000000000000       0.0000000000000000    
   0.0000000000000000       0.0000000000000000    
   0.0000000000000000       0.0000000000000000    
   0.0000000000000000       0.0000000000000000    
   0.0000000000000000       0.0000000000000000    
   0.0000000000000000       0.0000000000000000    
   1.0000000000000000       0.0000000000000000    
   0.0000000000000000       0.0000000000000000    
   0.0000000000000000       0.0000000000000000    
   0.0000000000000000       0.0000000000000000    
   0.0000000000000000       0.0000000000000000    
   0.0000000000000000       0.0000000000000000    
   0.0000000000000000       0.0000000000000000    
   0.0000000000000000       0.0000000000000000    
   0.0000000000000000       0.0000000000000000    
   0.0000000000000000       0.0000000000000000    
   0.0000000000000000       0.0000000000000000    
   0.0000000000000000       0.0000000000000000    
   0.0000000000000000       0.0000000000000000    
   0.0000000000000000       0.0000000000000000    
   0.0000000000000000       0.0000000000000000    
   0.0000000000000000       0.0000000000000000    
   0.0000000000000000       0.0000000000000000    
  0.91998872018696953     -0.27259846783296077    
  0.49817803200932209E-02 -0.78182167488341475E-01
  0.21938069743606953     -0.12179833264600039    
  0.30478787963639023E-01 -0.36872411156224708E-02
  0.59387293532334101E-01 -0.98803736339679871E-02
  0.22495292084304688E-01 -0.22594137056148347E-01
 -0.43802865300101475E-01 -0.38420058237885933E-01
 -0.69248436035044929E-03 -0.32379415088921309E-02
 -0.31003902665274981E-01  0.16133221456867193E-01
   0.0000000000000000       0.0000000000000000    
   0.0000000000000000       0.0000000000000000    
   0.0000000000000000       0.0000000000000000    
   0.0000000000000000       0.0000000000000000    
   0.0000000000000000       0.0000000000000000    
   0.0000000000000000       0.0000000000000000    
   0.0000000000000000       0.0000000000000000    
 -0.75604868210367715E-02 -0.28584817640586013E-01
 -0.69566904432998500      0.37858240610509752    
  0.34013001533587628      0.32869402020452831    
 -0.55412813286829968E-01 -0.14392400605672914    
  0.77204667953650122E-02 -0.28267145919050429    
 -0.15003465240670885     -0.10109430402266888    
 -0.33703250684001956E-02  0.10232484183588929    
 -0.73468155952296768E-02 -0.44788656353308811E-02
  0.39219973121810137E-02  0.32686986970930837E-01
   0.0000000000000000       0.0000000000000000    
   0.0000000000000000       0.0000000000000000    
   0.0000000000000000       0.0000000000000000    
   0.0000000000000000       0.0000000000000000    
   0.0000000000000000       0.0000000000000000    
   0.0000000000000000       0.0000000000000000    
   0.0000000000000000       0.0000000000000000    
 -0.39304875168501806E-03 -0.41688527182538546E-02
 -0.26101207719449543E-01  0.45305836387436030E-01
 -0.21009817994005184E-01  0.21728972306772055E-01
  0.48959045606646784      0.79230507146754359    
 -0.42675525989612086E-01 -0.34248294666286522    
 -0.41431649535200669E-01 -0.98317548694465112E-02
  0.15937966248054471E-01  0.26559323709098241E-01
  0.72671469185533979E-01  0.41193153469766666E-01
  0.40336753454030920E-02  0.24805488796858224E-02
   1.0000000000000000       0.0000000000000000    
   0.0000000000000000       0.0000000000000000    
   0.0000000000000000       0.0000000000000000    
   0.0000000000000000       0.0000000000000000    
   0.0000000000000000       0.0000000000000000    
   0.0000000000000000       0.0000000000000000    
   0.0000000000000000       0.0000000000000000    
   0.0000000000000000       0.0000000000000000    
   0.0000000000000000       0.0000000000000000    
   0.0000000000000000       0.0000000000000000    
   0.0000000000000000       0.0000000000000000    
   0.0000000000000000       0.0000000000000000    
   0.0000000000000000       0.0000000000000000    
   0.0000000000000000       0.0000000000000000    
   0.0000000000000000       0.0000000000000000    
   0.0000000000000000       0.0000000000000000    
   0.0000000000000000       0.0000000000000000    
   1.0000000000000000       0.0000000000000000    
   0.0000000000000000       0.0000000000000000    
   0.0000000000000000       0.0000000000000000    
   0.0000000000000000       0.0000000000000000    
   0.0000000000000000       0.0000000000000000    
   0.0000000000000000       0.0000000000000000    
   0.0000000000000000       0.0000000000000000    
   0.0000000000000000       0.0000000000000000    
   0.0000000000000000       0.0000000000000000    
   0.0000000000000000       0.0000000000000000    
   0.0000000000000000       0.0000000000000000    
   0.0000000000000000       0.0000000000000000    
   0.0000000000000000       0.0000000000000000    
   0.0000000000000000       0.0000000000000000    
   0.0000000000000000       0.0000000000000000    
   0.0000000000000000       0.0000000000000000    
   0.0000000000000000       0.0000000000000000    
   1.0000000000000000       0.0000000000000000    
   0.0000000000000000       0.0000000000000000    
   0.0000000000000000       0.0000000000000000    
   0.0000000000000000       0.0000000000000000    
   0.0000000000000000       0.0000000000000000    
   0.0000000000000000       0.0000000000000000    
   0.0000000000000000       0.0000000000000000    
   0.0000000000000000       0.0000000000000000    
   0.0000000000000000       0.0000000000000000    
   0.0000000000000000       0.0000000000000000    
   0.0000000000000000       0.0000000000000000    
   0.0000000000000000       0.0000000000000000    
   0.0000000000000000       0.0000000000000000    
   0.0000000000000000       0.0000000000000000    
   0.0000000000000000       0.0000000000000000    
   0.0000000000000000       0.0000000000000000    
   0.0000000000000000       0.0000000000000000    
   1.0000000000000000       0.0000000000000000    
   0.0000000000000000       0.0000000000000000    
   0.0000000000000000       0.0000000000000000    
   0.0000000000000000       0.0000000000000000    
   0.0000000000000000       0.0000000000000000    
   0.0000000000000000       0.0000000000000000    
   0.0000000000000000       0.0000000000000000    
   0.0000000000000000       0.0000000000000000    
   0.0000000000000000       0.0000000000000000    
   0.0000000000000000       0.0000000000000000    
   0.0000000000000000       0.0000000000000000    
   0.0000000000000000       0.0000000000000000    
   0.0000000000000000       0.0000000000000000    
   0.0000000000000000       0.0000000000000000    
   0.0000000000000000       0.0000000000000000    
   0.0000000000000000       0.0000000000000000    
   0.0000000000000000       0.0000000000000000    
   1.0000000000000000       0.0000000000000000    
   0.0000000000000000       0.0000000000000000    
   0.0000000000000000       0.0000000000000000    
   0.0000000000000000       0.0000000000000000    
   0.0000000000000000       0.0000000000000000    
   0.0000000000000000       0.0000000000000000    
   0.0000000000000000       0.0000000000000000    
   0.0000000000000000       0.0000000000000000    
   0.0000000000000000       0.0000000000000000    
   0.0000000000000000       0.0000000000000000    
   0.0000000000000000       0.0000000000000000    
   0.0000000000000000       0.0000000000000000    
   0.0000000000000000       0.0000000000000000    
   0.0000000000000000       0.0000000000000000    
   0.0000000000000000       0.0000000000000000    
   0.0000000000000000       0.0000000000000000    
   0.0000000000000000       0.0000000000000000    
   1.0000000000000000       0.0000000000000000    
   0.0000000000000000       0.0000000000000000    
   0.0000000000000000       0.0000000000000000    
   0.0000000000000000       0.0000000000000000    
   0.0000000000000000       0.0000000000000000    
   0.0000000000000000       0.0000000000000000    
   0.0000000000000000       0.0000000000000000    
   0.0000000000000000       0.0000000000000000    
   0.0000000000000000       0.0000000000000000    
   0.0000000000000000       0.0000000000000000    
   0.0000000000000000       0.0000000000000000    
   0.0000000000000000       0.0000000000000000    
   0.0000000000000000       0.0000000000000000    
   0.0000000000000000       0.0000000000000000    
   0.0000000000000000       0.0000000000000000    
   0.0000000000000000       0.0000000000000000    
   0.0000000000000000       0.0000000000000000    
   1.0000000000000000       0.0000000000000000    
   0.0000000000000000       0.0000000000000000    
   0.0000000000000000       0.0000000000000000    
   0.0000000000000000       0.0000000000000000    
   0.0000000000000000       0.0000000000000000    
   0.0000000000000000       0.0000000000000000    
   0.0000000000000000       0.0000000000000000    
   0.0000000000000000       0.0000000000000000    
   0.0000000000000000       0.0000000000000000    
   0.0000000000000000       0.0000000000000000    
   0.0000000000000000       0.0000000000000000    
   0.0000000000000000       0.0000000000000000    
   0.0000000000000000       0.0000000000000000    
   0.0000000000000000       0.0000000000000000    
   0.0000000000000000       0.0000000000000000    
   0.0000000000000000       0.0000000000000000    
   0.0000000000000000       0.0000000000000000    
  0.70525253091228468      0.68931710610430741    
  0.42003756641330110E-01  0.21478063755449618E-01
 -0.64411947937282971E-01 -0.63929644020620999E-01
 -0.79283830631423323E-03 -0.67679725126841978E-02
 -0.27824047135424836E-01 -0.59322047332870984E-01
  0.87106316851589385E-01 -0.89665303689211249E-02
  0.11666762695236811E-01 -0.60033396238260102E-01
  0.29586308538712570E-01 -0.62533220744185741E-02
  0.18143341112078555E-01  0.28091065425292086E-02
   0.0000000000000000       0.0000000000000000    
   0.0000000000000000       0.0000000000000000    
   0.0000000000000000       0.0000000000000000    
   0.0000000000000000       0.0000000000000000    
   0.0000000000000000       0.0000000000000000    
   0.0000000000000000       0.0000000000000000    
   0.0000000000000000       0.0000000000000000    
 -0.81195373788552627E-02 -0.11597661789019637E-01
  0.58139394111016751      0.34523314779358077    
  0.14133816124282939E-01  0.31150412672092948    
  0.17907838544177529     -0.10713159440571321    
  0.47816692981138104     -0.33594551953131097    
  0.24534561277672048E-01 -0.11084707628792564    
 -0.17062547719713542      0.12054782141836067    
  0.23346618520914672E-01 -0.19186794761630516E-01
  0.47311189901295771E-01 -0.25009856256204097E-01
   0.0000000000000000       0.0000000000000000    
   0.0000000000000000       0.0000000000000000    
   0.0000000000000000       0.0000000000000000    
   0.0000000000000000       0.0000000000000000    
   0.0000000000000000       0.0000000000000000    
   0.0000000000000000       0.0000000000000000    
   0.0000000000000000       0.0000000000000000    
 -0.22746811574440064E-02 -0.20726778029918382E-02
  0.10960416400672571      0.18140800293721962E-01
  0.24724173591766469E-02  0.42715909590734001E-02
 -0.61205053191283332      0.75687246307817901    
  0.11235876186315612     -0.15135098537483593    
 -0.36129563313794244E-02 -0.35695447015478277E-01
 -0.22488423831467388E-01  0.47287916984032848E-01
  0.45281445099236211E-02 -0.80366032345608237E-02
  0.12254513503327819E-01 -0.19137896820303889E-01
   1.0000000000000000       0.0000000000000000    
   0.0000000000000000       0.0000000000000000    
   0.0000000000000000       0.0000000000000000    
   0.0000000000000000       0.0000000000000000    
   0.0000000000000000       0.0000000000000000    
   0.0000000000000000       0.0000000000000000    
   0.0000000000000000       0.0000000000000000    
   0.0000000000000000       0.0000000000000000    
   0.0000000000000000       0.0000000000000000    
   0.0000000000000000       0.0000000000000000    
   0.0000000000000000       0.0000000000000000    
   0.0000000000000000       0.0000000000000000    
   0.0000000000000000       0.0000000000000000    
   0.0000000000000000       0.0000000000000000    
   0.0000000000000000       0.0000000000000000    
   0.0000000000000000       0.0000000000000000    
   0.0000000000000000       0.0000000000000000    
   1.0000000000000000       0.0000000000000000    
   0.0000000000000000       0.0000000000000000    
   0.0000000000000000       0.0000000000000000    
   0.0000000000000000       0.0000000000000000    
   0.0000000000000000       0.0000000000000000    
   0.0000000000000000       0.0000000000000000    
   0.0000000000000000       0.0000000000000000    
   0.0000000000000000       0.0000000000000000    
   0.0000000000000000       0.0000000000000000    
   0.0000000000000000       0.0000000000000000    
   0.0000000000000000       0.0000000000000000    
   0.0000000000000000       0.0000000000000000    
   0.0000000000000000       0.0000000000000000    
   0.0000000000000000       0.0000000000000000    
   0.0000000000000000       0.0000000000000000    
   0.0000000000000000       0.0000000000000000    
   0.0000000000000000       0.0000000000000000    
   1.0000000000000000       0.0000000000000000    
   0.0000000000000000       0.0000000000000000    
   0.0000000000000000       0.0000000000000000    
   0.0000000000000000       0.0000000000000000    
   0.0000000000000000       0.0000000000000000    
   0.0000000000000000       0.0000000000000000    
   0.0000000000000000       0.0000000000000000    
   0.0000000000000000       0.0000000000000000    
   0.0000000000000000       0.0000000000000000    
   0.0000000000000000       0.0000000000000000    
   0.0000000000000000       0.0000000000000000    
   0.0000000000000000       0.0000000000000000    
   0.0000000000000000       0.0000000000000000    
   0.0000000000000000       0.0000000000000000    
   0.0000000000000000       0.0000000000000000    
   0.0000000000000000       0.0000000000000000    
   0.0000000000000000       0.0000000000000000    
   1.0000000000000000       0.0000000000000000    
   0.0000000000000000       0.0000000000000000    
   0.0000000000000000       0.0000000000000000    
   0.0000000000000000       0.0000000000000000    
   0.0000000000000000       0.0000000000000000    
   0.0000000000000000       0.0000000000000000    
   0.0000000000000000       0.0000000000000000    
   0.0000000000000000       0.0000000000000000    
   0.0000000000000000       0.0000000000000000    
   0.0000000000000000       0.0000000000000000    
   0.0000000000000000       0.0000000000000000    
   0.0000000000000000       0.0000000000000000    
   0.0000000000000000       0.0000000000000000    
   0.0000000000000000       0.0000000000000000    
   0.0000000000000000       0.0000000000000000    
   0.0000000000000000       0.0000000000000000    
   0.0000000000000000       0.0000000000000000    
   1.0000000000000000       0.0000000000000000    
   0.0000000000000000       0.0000000000000000    
   0.0000000000000000       0.0000000000000000    
   0.0000000000000000       0.0000000000000000    
   0.0000000000000000       0.0000000000000000    
   0.0000000000000000       0.0000000000000000    
   0.0000000000000000       0.0000000000000000    
   0.0000000000000000       0.0000000000000000    
   0.0000000000000000       0.0000000000000000    
   0.0000000000000000       0.0000000000000000    
   0.0000000000000000       0.0000000000000000    
   0.0000000000000000       0.0000000000000000    
   0.0000000000000000       0.0000000000000000    
   0.0000000000000000       0.0000000000000000    
   0.0000000000000000       0.0000000000000000    
   0.0000000000000000       0.0000000000000000    
   0.0000000000000000       0.0000000000000000    
   1.0000000000000000       0.0000000000000000    
   0.0000000000000000       0.0000000000000000    
   0.0000000000000000       0.0000000000000000    
   0.0000000000000000       0.0000000000000000    
   0.0000000000000000       0.0000000000000000    
   0.0000000000000000       0.0000000000000000    
   0.0000000000000000       0.0000000000000000    
   0.0000000000000000       0.0000000000000000    
   0.0000000000000000       0.0000000000000000    
   0.0000000000000000       0.0000000000000000    
   0.0000000000000000       0.0000000000000000    
   0.0000000000000000       0.0000000000000000    
   0.0000000000000000       0.0000000000000000    
   0.0000000000000000       0.0000000000000000    
   0.0000000000000000       0.0000000000000000    
   0.0000000000000000       0.0000000000000000    
   0.0000000000000000       0.0000000000000000    
   1.0000000000000000       0.0000000000000000    
   0.0000000000000000       0.0000000000000000    
   0.0000000000000000       0.0000000000000000    
   0.0000000000000000       0.0000000000000000    
   0.0000000000000000       0.0000000000000000    
   0.0000000000000000       0.0000000000000000    
   0.0000000000000000       0.0000000000000000    
   0.0000000000000000       0.0000000000000000    
   0.0000000000000000       0.0000000000000000    
   0.0000000000000000       0.0000000000000000    
   0.0000000000000000       0.0000000000000000    
   0.0000000000000000       0.0000000000000000    
   0.0000000000000000       0.0000000000000000    
   0.0000000000000000       0.0000000000000000    
   0.0000000000000000       0.0000000000000000    
   0.0000000000000000       0.0000000000000000    
   0.0000000000000000       0.0000000000000000    
  0.30712339011938072      0.92417744715939287    
 -0.15659210892229208      0.68722926845683624E-01
 -0.97737976299453154E-02 -0.32778697689497288E-01
  0.15368851943967227E-02  0.22818556819294532E-02
  0.38117802858363456E-01  0.36425522542689132E-01
 -0.60022304333220054E-01  0.57418590141540646E-01
 -0.44686276545100823E-01  0.37491322496247578E-01
  0.71610163947857970E-02  0.24762168548222378E-01
  0.86043778821366032E-01  0.66598382092849211E-04
   0.0000000000000000       0.0000000000000000    
   0.0000000000000000       0.0000000000000000    
   0.0000000000000000       0.0000000000000000    
   0.0000000000000000       0.0000000000000000    
   0.0000000000000000       0.0000000000000000    
   0.0000000000000000       0.0000000000000000    
   0.0000000000000000       0.0000000000000000    
 -0.30078683253359616E-01 -0.91178247327461506E-01
 -0.80919015768283009      0.35308405027783157    
  0.60434604324339971E-05  0.13103774170445878E-03
  0.13630955684309932E-01  0.21052459757173594E-01
  0.45698224968788110E-02  0.43781722564470021E-02
  0.15193315860169346     -0.14484268744540094    
  0.25440256010925133     -0.21277899241660017    
 -0.28767235713575107E-01 -0.99907604196833144E-01
 -0.21397972859179937     -0.77834206902719695E-03
   0.0000000000000000       0.0000000000000000    
   0.0000000000000000       0.0000000000000000    
   0.0000000000000000       0.0000000000000000    
   0.0000000000000000       0.0000000000000000    
   0.0000000000000000       0.0000000000000000    
   0.0000000000000000       0.0000000000000000    
   0.0000000000000000       0.0000000000000000    
  0.62207384223826948E-03  0.17765344920181794E-02
  0.14953324166258226E-01 -0.67556768466246631E-02
  0.30222247542218732E-01  0.10200407807200118    
  0.54823452234034831      0.82837068411224435    
 -0.15135125954297385E-01 -0.14505338887985667E-01
 -0.19621180437500340E-01  0.18751669689702401E-01
 -0.75985197150405612E-02  0.64466802466925203E-02
  0.52838396494287055E-02  0.18193668211481030E-01
 -0.39468301457889002E-02 -0.14829492140175338E-03
   1.0000000000000000       0.0000000000000000    
   0.0000000000000000       0.0000000000000000    
   0.0000000000000000       0.0000000000000000    
   0.0000000000000000       0.0000000000000000    
   0.0000000000000000       0.0000000000000000    
   0.0000000000000000       0.0000000000000000    
   0.0000000000000000       0.0000000000000000    
   0.0000000000000000       0.0000000000000000    
   0.0000000000000000       0.0000000000000000    
   0.0000000000000000       0.0000000000000000    
   0.0000000000000000       0.0000000000000000    
   0.0000000000000000       0.0000000000000000    
   0.0000000000000000       0.0000000000000000    
   0.0000000000000000       0.0000000000000000    
   0.0000000000000000       0.0000000000000000    
   0.0000000000000000       0.0000000000000000    
   0.0000000000000000       0.0000000000000000    
   1.0000000000000000       0.0000000000000000    
   0.0000000000000000       0.0000000000000000    
   0.0000000000000000       0.0000000000000000    
   0.0000000000000000       0.0000000000000000    
   0.0000000000000000       0.0000000000000000    
   0.0000000000000000       0.0000000000000000    
   0.0000000000000000       0.0000000000000000    
   0.0000000000000000       0.0000000000000000    
   0.0000000000000000       0.0000000000000000    
   0.0000000000000000       0.0000000000000000    
   0.0000000000000000       0.0000000000000000    
   0.0000000000000000       0.0000000000000000    
   0.0000000000000000       0.0000000000000000    
   0.0000000000000000       0.0000000000000000    
   0.0000000000000000       0.0000000000000000    
   0.0000000000000000       0.0000000000000000    
   0.0000000000000000       0.0000000000000000    
   1.0000000000000000       0.0000000000000000    
   0.0000000000000000       0.0000000000000000    
   0.0000000000000000       0.0000000000000000    
   0.0000000000000000       0.0000000000000000    
   0.0000000000000000       0.0000000000000000    
   0.0000000000000000       0.0000000000000000    
   0.0000000000000000       0.0000000000000000    
   0.0000000000000000       0.0000000000000000    
   0.0000000000000000       0.0000000000000000    
   0.0000000000000000       0.0000000000000000    
   0.0000000000000000       0.0000000000000000    
   0.0000000000000000       0.0000000000000000    
   0.0000000000000000       0.0000000000000000    
   0.0000000000000000       0.0000000000000000    
   0.0000000000000000       0.0000000000000000    
   0.0000000000000000       0.0000000000000000    
   0.0000000000000000       0.0000000000000000    
   1.0000000000000000       0.0000000000000000    
   0.0000000000000000       0.0000000000000000    
   0.0000000000000000       0.0000000000000000    
   0.0000000000000000       0.0000000000000000    
   0.0000000000000000       0.0000000000000000    
   0.0000000000000000       0.0000000000000000    
   0.0000000000000000       0.0000000000000000    
   0.0000000000000000       0.0000000000000000    
   0.0000000000000000       0.0000000000000000    
   0.0000000000000000       0.0000000000000000    
   0.0000000000000000       0.0000000000000000    
   0.0000000000000000       0.0000000000000000    
   0.0000000000000000       0.0000000000000000    
   0.0000000000000000       0.0000000000000000    
   0.0000000000000000       0.0000000000000000    
   0.0000000000000000       0.0000000000000000    
   0.0000000000000000       0.0000000000000000    
   1.0000000000000000       0.0000000000000000    
   0.0000000000000000       0.0000000000000000    
   0.0000000000000000       0.0000000000000000    
   0.0000000000000000       0.0000000000000000    
   0.0000000000000000       0.0000000000000000    
   0.0000000000000000       0.0000000000000000    
   0.0000000000000000       0.0000000000000000    
   0.0000000000000000       0.0000000000000000    
   0.0000000000000000       0.0000000000000000    
   0.0000000000000000       0.0000000000000000    
   0.0000000000000000       0.0000000000000000    
   0.0000000000000000       0.0000000000000000    
   0.0000000000000000       0.0000000000000000    
   0.0000000000000000       0.0000000000000000    
   0.0000000000000000       0.0000000000000000    
   0.0000000000000000       0.0000000000000000    
   0.0000000000000000       0.0000000000000000    
   1.0000000000000000       0.0000000000000000    
   0.0000000000000000       0.0000000000000000    
   0.0000000000000000       0.0000000000000000    
   0.0000000000000000       0.0000000000000000    
   0.0000000000000000       0.0000000000000000    
   0.0000000000000000       0.0000000000000000    
   0.0000000000000000       0.0000000000000000    
   0.0000000000000000       0.0000000000000000    
   0.0000000000000000       0.0000000000000000    
   0.0000000000000000       0.0000000000000000    
   0.0000000000000000       0.0000000000000000    
   0.0000000000000000       0.0000000000000000    
   0.0000000000000000       0.0000000000000000    
   0.0000000000000000       0.0000000000000000    
   0.0000000000000000       0.0000000000000000    
   0.0000000000000000       0.0000000000000000    
   0.0000000000000000       0.0000000000000000    
   1.0000000000000000       0.0000000000000000    
   0.0000000000000000       0.0000000000000000    
   0.0000000000000000       0.0000000000000000    
   0.0000000000000000       0.0000000000000000    
   0.0000000000000000       0.0000000000000000    
   0.0000000000000000       0.0000000000000000    
   0.0000000000000000       0.0000000000000000    
   0.0000000000000000       0.0000000000000000    
   0.0000000000000000       0.0000000000000000    
   0.0000000000000000       0.0000000000000000    
   0.0000000000000000       0.0000000000000000    
   0.0000000000000000       0.0000000000000000    
   0.0000000000000000       0.0000000000000000    
   0.0000000000000000       0.0000000000000000    
   0.0000000000000000       0.0000000000000000    
   0.0000000000000000       0.0000000000000000    
   0.0000000000000000       0.0000000000000000    
 -0.94936626051649919      0.25059746725603715    
 -0.38883690128819981E-01 -0.40418718315622160E-01
 -0.12355896798753187      0.88458972076421588E-02
 -0.53108787831940715E-01  0.23731338433809243E-01
 -0.14484136769928983E-02 -0.18158610317909357E-01
  0.81913346496596443E-01 -0.15768466997571156E-01
  0.60782544296684726E-01  0.13555491473078141E-02
 -0.54185224599307441E-01  0.72929571785546789E-02
 -0.73726182264169330E-02  0.17393614586599130E-05
   0.0000000000000000       0.0000000000000000    
   0.0000000000000000       0.0000000000000000    
   0.0000000000000000       0.0000000000000000    
   0.0000000000000000       0.0000000000000000    
   0.0000000000000000       0.0000000000000000    
   0.0000000000000000       0.0000000000000000    
   0.0000000000000000       0.0000000000000000    
  0.80867619377246458E-01 -0.21340897223007874E-01
 -0.59959932083488343     -0.62339489506270707    
 -0.44738776492330468      0.32034083890216877E-01
  0.11819840323413780     -0.52830796442165470E-01
  0.98339992449487934E-02  0.12285190729385834    
 -0.56567512786471118E-01  0.10884344915848526E-01
 -0.53883637854501176E-01 -0.12045157221449070E-02
  0.72876338666729545E-01 -0.98047735660195777E-02
  0.10042930274590843E-01  0.11463026790132222E-05
   0.0000000000000000       0.0000000000000000    
   0.0000000000000000       0.0000000000000000    
   0.0000000000000000       0.0000000000000000    
   0.0000000000000000       0.0000000000000000    
   0.0000000000000000       0.0000000000000000    
   0.0000000000000000       0.0000000000000000    
   0.0000000000000000       0.0000000000000000    
  0.46375885563751523E-02 -0.12214293766195372E-02
 -0.61232207108078668E-01 -0.63659392460583913E-01
  0.18280834441567562     -0.13103970775632577E-01
 -0.61109695256077268      0.27310909807813477    
  0.56620328015761036E-01  0.70709526926223709    
 -0.13633065457035836E-01  0.26109194609266412E-02
  0.22233763491913167E-01  0.49662916512924443E-03
  0.72769312432627506E-01 -0.97874871638423087E-02
 -0.35894515509550667E-01  0.11607517512254695E-04
   1.0000000000000000       0.0000000000000000    
   0.0000000000000000       0.0000000000000000    
   0.0000000000000000       0.0000000000000000    
   0.0000000000000000       0.0000000000000000    
   0.0000000000000000       0.0000000000000000    
   0.0000000000000000       0.0000000000000000    
   0.0000000000000000       0.0000000000000000    
   0.0000000000000000       0.0000000000000000    
   0.0000000000000000       0.0000000000000000    
   0.0000000000000000       0.0000000000000000    
   0.0000000000000000       0.0000000000000000    
   0.0000000000000000       0.0000000000000000    
   0.0000000000000000       0.0000000000000000    
   0.0000000000000000       0.0000000000000000    
   0.0000000000000000       0.0000000000000000    
   0.0000000000000000       0.0000000000000000    
   0.0000000000000000       0.0000000000000000    
   1.0000000000000000       0.0000000000000000    
   0.0000000000000000       0.0000000000000000    
   0.0000000000000000       0.0000000000000000    
   0.0000000000000000       0.0000000000000000    
   0.0000000000000000       0.0000000000000000    
   0.0000000000000000       0.0000000000000000    
   0.0000000000000000       0.0000000000000000    
   0.0000000000000000       0.0000000000000000    
   0.0000000000000000       0.0000000000000000    
   0.0000000000000000       0.0000000000000000    
   0.0000000000000000       0.0000000000000000    
   0.0000000000000000       0.0000000000000000    
   0.0000000000000000       0.0000000000000000    
   0.0000000000000000       0.0000000000000000    
   0.0000000000000000       0.0000000000000000    
   0.0000000000000000       0.0000000000000000    
   0.0000000000000000       0.0000000000000000    
   1.0000000000000000       0.0000000000000000    
   0.0000000000000000       0.0000000000000000    
   0.0000000000000000       0.0000000000000000    
   0.0000000000000000       0.0000000000000000    
   0.0000000000000000       0.0000000000000000    
   0.0000000000000000       0.0000000000000000    
   0.0000000000000000       0.0000000000000000    
   0.0000000000000000       0.0000000000000000    
   0.0000000000000000       0.0000000000000000    
   0.0000000000000000       0.0000000000000000    
   0.0000000000000000       0.0000000000000000    
   0.0000000000000000       0.0000000000000000    
   0.0000000000000000       0.0000000000000000    
   0.0000000000000000       0.0000000000000000    
   0.0000000000000000       0.0000000000000000    
   0.0000000000000000       0.0000000000000000    
   0.0000000000000000       0.0000000000000000    
   1.0000000000000000       0.0000000000000000    
   0.0000000000000000       0.0000000000000000    
   0.0000000000000000       0.0000000000000000    
   0.0000000000000000       0.0000000000000000    
   0.0000000000000000       0.0000000000000000    
   0.0000000000000000       0.0000000000000000    
   0.0000000000000000       0.0000000000000000    
   0.0000000000000000       0.0000000000000000    
   0.0000000000000000       0.0000000000000000    
   0.0000000000000000       0.0000000000000000    
   0.0000000000000000       0.0000000000000000    
   0.0000000000000000       0.0000000000000000    
   0.0000000000000000       0.0000000000000000    
   0.0000000000000000       0.0000000000000000    
   0.0000000000000000       0.0000000000000000    
   0.0000000000000000       0.0000000000000000    
   0.0000000000000000       0.0000000000000000    
   1.0000000000000000       0.0000000000000000    
   0.0000000000000000       0.0000000000000000    
   0.0000000000000000       0.0000000000000000    
   0.0000000000000000       0.0000000000000000    
   0.0000000000000000       0.0000000000000000    
   0.0000000000000000       0.0000000000000000    
   0.0000000000000000       0.0000000000000000    
   0.0000000000000000       0.0000000000000000    
   0.0000000000000000       0.0000000000000000    
   0.0000000000000000       0.0000000000000000    
   0.0000000000000000       0.0000000000000000    
   0.0000000000000000       0.0000000000000000    
   0.0000000000000000       0.0000000000000000    
   0.0000000000000000       0.0000000000000000    
   0.0000000000000000       0.0000000000000000    
   0.0000000000000000       0.0000000000000000    
   0.0000000000000000       0.0000000000000000    
   1.0000000000000000       0.0000000000000000    
   0.0000000000000000       0.0000000000000000    
   0.0000000000000000       0.0000000000000000    
   0.0000000000000000       0.0000000000000000    
   0.0000000000000000       0.0000000000000000    
   0.0000000000000000       0.0000000000000000    
   0.0000000000000000       0.0000000000000000    
   0.0000000000000000       0.0000000000000000    
   0.0000000000000000       0.0000000000000000    
   0.0000000000000000       0.0000000000000000    
   0.0000000000000000       0.0000000000000000    
   0.0000000000000000       0.0000000000000000    
   0.0000000000000000       0.0000000000000000    
   0.0000000000000000       0.0000000000000000    
   0.0000000000000000       0.0000000000000000    
   0.0000000000000000       0.0000000000000000    
   0.0000000000000000       0.0000000000000000    
   1.0000000000000000       0.0000000000000000    
   0.0000000000000000       0.0000000000000000    
   0.0000000000000000       0.0000000000000000    
   0.0000000000000000       0.0000000000000000    
   0.0000000000000000       0.0000000000000000    
   0.0000000000000000       0.0000000000000000    
   0.0000000000000000       0.0000000000000000    
   0.0000000000000000       0.0000000000000000    
   0.0000000000000000       0.0000000000000000    
   0.0000000000000000       0.0000000000000000    
   0.0000000000000000       0.0000000000000000    
   0.0000000000000000       0.0000000000000000    
   0.0000000000000000       0.0000000000000000    
   0.0000000000000000       0.0000000000000000    
   0.0000000000000000       0.0000000000000000    
   0.0000000000000000       0.0000000000000000    
   0.0000000000000000       0.0000000000000000    
 -0.50665614047968555     -0.85202669233105366    
  0.26410267873508947E-01  0.42416619665957861E-01
 -0.66486922047351793E-01  0.41761668226927430E-01
 -0.53295351095994703E-01  0.35347660818529740E-02
  0.74183724015116914E-02  0.22498881814069463E-01
 -0.62787022298931155E-02  0.33721890825324834E-01
  0.13500747442671043E-02 -0.52794442062849882E-01
  0.30099263737213541E-01  0.33119196165226281E-03
  0.19753562256670739E-01 -0.35760150955029758E-02
   0.0000000000000000       0.0000000000000000    
   0.0000000000000000       0.0000000000000000    
   0.0000000000000000       0.0000000000000000    
   0.0000000000000000       0.0000000000000000    
   0.0000000000000000       0.0000000000000000    
   0.0000000000000000       0.0000000000000000    
   0.0000000000000000       0.0000000000000000    
  0.38329815744329088E-01  0.77349448620629285E-02
  0.72996562723686209      0.50240515575802491    
  0.20780608135793480      0.24607658547578626    
  0.20710019671309213     -0.74369588178774745E-01
 -0.67340114469696691E-01  0.12234789757701860    
 -0.40039928161637713E-01  0.10761326997314122    
  0.86549849762381434E-01  0.11293814460821237    
  0.95075194937235992E-02  0.86213099167828516E-01
 -0.13585981197136884E-01  0.20267605157231756E-01
   0.0000000000000000       0.0000000000000000    
   0.0000000000000000       0.0000000000000000    
   0.0000000000000000       0.0000000000000000    
   0.0000000000000000       0.0000000000000000    
   0.0000000000000000       0.0000000000000000    
   0.0000000000000000       0.0000000000000000    
   0.0000000000000000       0.0000000000000000    
 -0.56866494893097336E-02 -0.63211556121686371E-02
 -0.22606155059279324E-01  0.24114938930194018E-01
  0.29002544606130404     -0.19621427583261461    
 -0.27771848959025708      0.29496298898154066    
 -0.73788274751446836      0.29769637081414319    
  0.21032055073671588      0.25692951334046608E-01
  0.20420023189268190E-01 -0.12608272915655863    
 -0.90934601772348439E-01  0.38425411380589802E-01
 -0.85906913166455379E-01  0.25714333684090269E-01
   1.0000000000000000       0.0000000000000000    
   0.0000000000000000       0.0000000000000000    
   0.0000000000000000       0.0000000000000000    
   0.0000000000000000       0.0000000000000000    
   0.0000000000000000       0.0000000000000000    
   0.0000000000000000       0.0000000000000000    
   0.0000000000000000       0.0000000000000000    
   0.0000000000000000       0.0000000000000000    
   0.0000000000000000       0.0000000000000000    
   0.0000000000000000       0.0000000000000000    
   0.0000000000000000       0.0000000000000000    
   0.0000000000000000       0.0000000000000000    
   0.0000000000000000       0.0000000000000000    
   0.0000000000000000       0.0000000000000000    
   0.0000000000000000       0.0000000000000000    
   0.0000000000000000       0.0000000000000000    
   0.0000000000000000       0.0000000000000000    
   1.0000000000000000       0.0000000000000000    
   0.0000000000000000       0.0000000000000000    
   0.0000000000000000       0.0000000000000000    
   0.0000000000000000       0.0000000000000000    
   0.0000000000000000       0.0000000000000000    
   0.0000000000000000       0.0000000000000000    
   0.0000000000000000       0.0000000000000000    
   0.0000000000000000       0.0000000000000000    
   0.0000000000000000       0.0000000000000000    
   0.0000000000000000       0.0000000000000000    
   0.0000000000000000       0.0000000000000000    
   0.0000000000000000       0.0000000000000000    
   0.0000000000000000       0.0000000000000000    
   0.0000000000000000       0.0000000000000000    
   0.0000000000000000       0.0000000000000000    
   0.0000000000000000       0.0000000000000000    
   0.0000000000000000       0.0000000000000000    
   1.0000000000000000       0.0000000000000000    
   0.0000000000000000       0.0000000000000000    
   0.0000000000000000       0.0000000000000000    
   0.0000000000000000       0.0000000000000000    
   0.0000000000000000       0.0000000000000000    
   0.0000000000000000       0.0000000000000000    
   0.0000000000000000       0.0000000000000000    
   0.0000000000000000       0.0000000000000000    
   0.0000000000000000       0.0000000000000000    
   0.0000000000000000       0.0000000000000000    
   0.0000000000000000       0.0000000000000000    
   0.0000000000000000       0.0000000000000000    
   0.0000000000000000       0.0000000000000000    
   0.0000000000000000       0.0000000000000000    
   0.0000000000000000       0.0000000000000000    
   0.0000000000000000       0.0000000000000000    
   0.0000000000000000       0.0000000000000000    
   1.0000000000000000       0.0000000000000000    
   0.0000000000000000       0.0000000000000000    
   0.0000000000000000       0.0000000000000000    
   0.0000000000000000       0.0000000000000000    
   0.0000000000000000       0.0000000000000000    
   0.0000000000000000       0.0000000000000000    
   0.0000000000000000       0.0000000000000000    
   0.0000000000000000       0.0000000000000000    
   0.0000000000000000       0.0000000000000000    
   0.0000000000000000       0.0000000000000000    
   0.0000000000000000       0.0000000000000000    
   0.0000000000000000       0.0000000000000000    
   0.0000000000000000       0.0000000000000000    
   0.0000000000000000       0.0000000000000000    
   0.0000000000000000       0.0000000000000000    
   0.0000000000000000       0.0000000000000000    
   0.0000000000000000       0.0000000000000000    
   1.0000000000000000       0.0000000000000000    
   0.0000000000000000       0.0000000000000000    
   0.0000000000000000       0.0000000000000000    
   0.0000000000000000       0.0000000000000000    
   0.0000000000000000       0.0000000000000000    
   0.0000000000000000       0.0000000000000000    
   0.0000000000000000       0.0000000000000000    
   0.0000000000000000       0.0000000000000000    
   0.0000000000000000       0.0000000000000000    
   0.0000000000000000       0.0000000000000000    
   0.0000000000000000       0.0000000000000000    
   0.0000000000000000       0.0000000000000000    
   0.0000000000000000       0.0000000000000000    
   0.0000000000000000       0.0000000000000000    
   0.0000000000000000       0.0000000000000000    
   0.0000000000000000       0.0000000000000000    
   0.0000000000000000       0.0000000000000000    
   1.0000000000000000       0.0000000000000000    
   0.0000000000000000       0.0000000000000000    
   0.0000000000000000       0.0000000000000000    
   0.0000000000000000       0.0000000000000000    
   0.0000000000000000       0.0000000000000000    
   0.0000000000000000       0.0000000000000000    
   0.0000000000000000       0.0000000000000000    
   0.0000000000000000       0.0000000000000000    
   0.0000000000000000       0.0000000000000000    
   0.0000000000000000       0.0000000000000000    
   0.0000000000000000       0.0000000000000000    
   0.0000000000000000       0.0000000000000000    
   0.0000000000000000       0.0000000000000000    
   0.0000000000000000       0.0000000000000000    
   0.0000000000000000       0.0000000000000000    
   0.0000000000000000       0.0000000000000000    
   0.0000000000000000       0.0000000000000000    
   1.0000000000000000       0.0000000000000000    
   0.0000000000000000       0.0000000000000000    
   0.0000000000000000       0.0000000000000000    
   0.0000000000000000       0.0000000000000000    
   0.0000000000000000       0.0000000000000000    
   0.0000000000000000       0.0000000000000000    
   0.0000000000000000       0.0000000000000000    
   0.0000000000000000       0.0000000000000000    
   0.0000000000000000       0.0000000000000000    
   0.0000000000000000       0.0000000000000000    
   0.0000000000000000       0.0000000000000000    
   0.0000000000000000       0.0000000000000000    
   0.0000000000000000       0.0000000000000000    
   0.0000000000000000       0.0000000000000000    
   0.0000000000000000       0.0000000000000000    
   0.0000000000000000       0.0000000000000000    
   0.0000000000000000       0.0000000000000000    
 -0.31275876970184391      0.93184396127675595    
 -0.81612759588561762E-01 -0.37604329350327217E-01
 -0.14436951692827268E-01  0.53958648715170102E-01
 -0.73612043545784453E-02  0.96081357837486794E-01
  0.33223728355556967E-01  0.50671568286115118E-01
 -0.45654934606176450E-02  0.55891126080380528E-01
  0.58062369024454011E-01  0.37945672741091632E-01
 -0.16469360701691266E-01  0.87947402184144399E-02
  0.35298924027815801E-01  0.12102888884160314E-01
   0.0000000000000000       0.0000000000000000    
   0.0000000000000000       0.0000000000000000    
   0.0000000000000000       0.0000000000000000    
   0.0000000000000000       0.0000000000000000    
   0.0000000000000000       0.0000000000000000    
   0.0000000000000000       0.0000000000000000    
   0.0000000000000000       0.0000000000000000    
  0.56659568574787510E-01  0.13573418592010417E-02
  0.23824835021968729     -0.87180792635895110    
 -0.31423402203013866E-01  0.26156373978209824    
  0.29038686823595696E-01  0.75334371850137263E-01
  0.67252055751002057E-01 -0.27355865998666357    
  0.96703360743279398E-01 -0.84078624871857383E-01
  0.11915241655085151E-02 -0.39070934961046452E-01
 -0.52568372346595241E-01  0.43178369266129255E-02
 -0.12786765516950585E-01 -0.61672601974669672E-01
   0.0000000000000000       0.0000000000000000    
   0.0000000000000000       0.0000000000000000    
   0.0000000000000000       0.0000000000000000    
   0.0000000000000000       0.0000000000000000    
   0.0000000000000000       0.0000000000000000    
   0.0000000000000000       0.0000000000000000    
   0.0000000000000000       0.0000000000000000    
  0.37198277097427734E-02 -0.26698638403514316E-01
 -0.34155947611334614E-01  0.83443284281100844E-01
 -0.14807496640606635      0.72769381044759063    
  0.10920487759149113     -0.25901326777337013E-01
 -0.31982651734828567E-01  0.45275093733975330    
 -0.11391018040626510     -0.82384393472458420E-01
 -0.27307954136536960     -0.29232985515074722    
  0.24723334957150941E-01 -0.17809384271850945    
  0.15286798430095359E-01 -0.93393407064824532E-01
   1.0000000000000000       0.0000000000000000    
   0.0000000000000000       0.0000000000000000    
   0.0000000000000000       0.0000000000000000    
   0.0000000000000000       0.0000000000000000    
   0.0000000000000000       0.0000000000000000    
   0.0000000000000000       0.0000000000000000    
   0.0000000000000000       0.0000000000000000    
   0.0000000000000000       0.0000000000000000    
   0.0000000000000000       0.0000000000000000    
   0.0000000000000000       0.0000000000000000    
   0.0000000000000000       0.0000000000000000    
   0.0000000000000000       0.0000000000000000    
   0.0000000000000000       0.0000000000000000    
   0.0000000000000000       0.0000000000000000    
   0.0000000000000000       0.0000000000000000    
   0.0000000000000000       0.0000000000000000    
   0.0000000000000000       0.0000000000000000    
   1.0000000000000000       0.0000000000000000    
   0.0000000000000000       0.0000000000000000    
   0.0000000000000000       0.0000000000000000    
   0.0000000000000000       0.0000000000000000    
   0.0000000000000000       0.0000000000000000    
   0.0000000000000000       0.0000000000000000    
   0.0000000000000000       0.0000000000000000    
   0.0000000000000000       0.0000000000000000    
   0.0000000000000000       0.0000000000000000    
   0.0000000000000000       0.0000000000000000    
   0.0000000000000000       0.0000000000000000    
   0.0000000000000000       0.0000000000000000    
   0.0000000000000000       0.0000000000000000    
   0.0000000000000000       0.0000000000000000    
   0.0000000000000000       0.0000000000000000    
   0.0000000000000000       0.0000000000000000    
   0.0000000000000000       0.0000000000000000    
   1.0000000000000000       0.0000000000000000    
   0.0000000000000000       0.0000000000000000    
   0.0000000000000000       0.0000000000000000    
   0.0000000000000000       0.0000000000000000    
   0.0000000000000000       0.0000000000000000    
   0.0000000000000000       0.0000000000000000    
   0.0000000000000000       0.0000000000000000    
   0.0000000000000000       0.0000000000000000    
   0.0000000000000000       0.0000000000000000    
   0.0000000000000000       0.0000000000000000    
   0.0000000000000000       0.0000000000000000    
   0.0000000000000000       0.0000000000000000    
   0.0000000000000000       0.0000000000000000    
   0.0000000000000000       0.0000000000000000    
   0.0000000000000000       0.0000000000000000    
   0.0000000000000000       0.0000000000000000    
   0.0000000000000000       0.0000000000000000    
   1.0000000000000000       0.0000000000000000    
   0.0000000000000000       0.0000000000000000    
   0.0000000000000000       0.0000000000000000    
   0.0000000000000000       0.0000000000000000    
   0.0000000000000000       0.0000000000000000    
   0.0000000000000000       0.0000000000000000    
   0.0000000000000000       0.0000000000000000    
   0.0000000000000000       0.0000000000000000    
   0.0000000000000000       0.0000000000000000    
   0.0000000000000000       0.0000000000000000    
   0.0000000000000000       0.0000000000000000    
   0.0000000000000000       0.0000000000000000    
   0.0000000000000000       0.0000000000000000    
   0.0000000000000000       0.0000000000000000    
   0.0000000000000000       0.0000000000000000    
   0.0000000000000000       0.0000000000000000    
   0.0000000000000000       0.0000000000000000    
   1.0000000000000000       0.0000000000000000    
   0.0000000000000000       0.0000000000000000    
   0.0000000000000000       0.0000000000000000    
   0.0000000000000000       0.0000000000000000    
   0.0000000000000000       0.0000000000000000    
   0.0000000000000000       0.0000000000000000    
   0.0000000000000000       0.0000000000000000    
   0.0000000000000000       0.0000000000000000    
   0.0000000000000000       0.0000000000000000    
   0.0000000000000000       0.0000000000000000    
   0.0000000000000000       0.0000000000000000    
   0.0000000000000000       0.0000000000000000    
   0.0000000000000000       0.0000000000000000    
   0.0000000000000000       0.0000000000000000    
   0.0000000000000000       0.0000000000000000    
   0.0000000000000000       0.0000000000000000    
   0.0000000000000000       0.0000000000000000    
   1.0000000000000000       0.0000000000000000    
   0.0000000000000000       0.0000000000000000    
   0.0000000000000000       0.0000000000000000    
   0.0000000000000000       0.0000000000000000    
   0.0000000000000000       0.0000000000000000    
   0.0000000000000000       0.0000000000000000    
   0.0000000000000000       0.0000000000000000    
   0.0000000000000000       0.0000000000000000    
   0.0000000000000000       0.0000000000000000    
   0.0000000000000000       0.0000000000000000    
   0.0000000000000000       0.0000000000000000    
   0.0000000000000000       0.0000000000000000    
   0.0000000000000000       0.0000000000000000    
   0.0000000000000000       0.0000000000000000    
   0.0000000000000000       0.0000000000000000    
   0.0000000000000000       0.0000000000000000    
   0.0000000000000000       0.0000000000000000    
   1.0000000000000000       0.0000000000000000    
   0.0000000000000000       0.0000000000000000    
   0.0000000000000000       0.0000000000000000    
   0.0000000000000000       0.0000000000000000    
   0.0000000000000000       0.0000000000000000    
   0.0000000000000000       0.0000000000000000    
   0.0000000000000000       0.0000000000000000    
   0.0000000000000000       0.0000000000000000    
   0.0000000000000000       0.0000000000000000    
   0.0000000000000000       0.0000000000000000    
   0.0000000000000000       0.0000000000000000    
   0.0000000000000000       0.0000000000000000    
   0.0000000000000000       0.0000000000000000    
   0.0000000000000000       0.0000000000000000    
   0.0000000000000000       0.0000000000000000    
   0.0000000000000000       0.0000000000000000    
   0.0000000000000000       0.0000000000000000    
 -0.12656944555896954      0.97425596725791841    
  0.89551038553804682E-01 -0.21901070082060603E-01
 -0.31982560936465995E-01 -0.44535805172842099E-01
 -0.67749884499563220E-01  0.65626500449394332E-01
  0.89896639436826652E-03  0.61671743764103684E-01
  0.28016238985844821E-01 -0.84333753349114540E-01
  0.24258151540622695E-01 -0.21945839563600064E-01
 -0.72669462253966395E-02  0.12347224596155700E-01
 -0.36237115929913952E-01  0.10651818379400237E-01
   0.0000000000000000       0.0000000000000000    
   0.0000000000000000       0.0000000000000000    
   0.0000000000000000       0.0000000000000000    
   0.0000000000000000       0.0000000000000000    
   0.0000000000000000       0.0000000000000000    
   0.0000000000000000       0.0000000000000000    
   0.0000000000000000       0.0000000000000000    
 -0.49022861643301364E-01 -0.29085080910246780E-01
  0.38520833539619007E-01 -0.90444376907359347    
 -0.97063791045948505E-01 -0.21838803545553534    
[...]
  0.56502506289462457E-02 -0.20937948623603992E-02
  0.59092039143352915E-02 -0.14329309337662140E-01
  0.13501019391382731E-01  0.36943120648898653E-01
  0.10178025716356544E-01  0.45388206854668503E-01
  0.70569049721148662E-02 -0.31729751090581758E-01
  0.95416683883134779     -0.20201689262717884    
 -0.47752546330927480E-02 -0.28387785642864658E-02
 -0.12744637043116477E-03  0.91878676795731119E-02
  0.19163671339754308E-01 -0.12886659451440474E-01
  0.21275503063700050E-01  0.94537624752431514E-02
  0.13071660870321824E-01  0.23064607467236839E-02
 -0.81336949436112364E-02  0.28819995770848054E-02
  0.11042468655403698E-01 -0.15745605642740843E-01
  0.19455243062754889E-01  0.22061179553380827E-01
 -0.78346992357990509E-02 -0.23508486247722808E-02
 -0.10002160834662047E-01 -0.65504620314367585E-02
  0.93897846432815002      0.18777681117224013    
  0.84375310673015028E-02  0.36488916545798322E-02
  0.26166457062218290E-01 -0.74662649608831302E-01
 -0.18258275236797541E-01  0.42746168204978834E-02
  0.37197116156022091E-02 -0.23193402295227050E-01
  0.13543670805345878E-01 -0.19173536733935316E-02
  0.88339937919525279E-02 -0.26989794119746245E-01
  0.21914305152993106E-01 -0.34123003146161309E-02
 -0.70157888779613264E-01  0.39424125905296856E-01
  0.21916606609707373E-01 -0.34181758489842170E-02
 -0.11175652520404322E-01  0.31789229798848156E-01
  0.92637649459461135      0.25200671989525586    
 -0.11176702526137615E-01  0.31794616587620027E-01
  0.41083103998524745E-02  0.25434623627038688E-01
 -0.10328494773797148E-01  0.26146623225047422E-01
  0.59285445415175097E-02 -0.27683324555172778E-01
  0.11035314035230762E-01 -0.15750593177171080E-01
 -0.10004878696833402E-01 -0.65424458108632221E-02
 -0.78319623429376622E-02 -0.23495602466948868E-02
  0.19460855289463928E-01  0.22054973056844153E-01
  0.26168654198230695E-01 -0.74664249353405168E-01
  0.84371865994610495E-02  0.36515425540458364E-02
  0.93897775658723603      0.18777651886388097    
 -0.18259131054474777E-01  0.42720177107696440E-02
  0.37191364452370296E-02 -0.23193550049634023E-01
  0.13544254432959793E-01 -0.19160383747311939E-02
 -0.28924003876532371E-01  0.12283639155132978E-01
 -0.20513328321167118E-01 -0.12477737184693343E-01
  0.21984953626930651E-01  0.21196033423507881E-01
 -0.20521455573794735E-01 -0.12475133906180899E-01
  0.21892203295346590E-01  0.21652284454940777E-01
 -0.17096642049316498E-01  0.37514432217563551E-01
  0.21897313632550222E-01  0.21650842624574593E-01
  0.87419157489172106      0.44901061454337032    
  0.14384527806242975E-01 -0.59398738939934279E-02
 -0.66730724856562812E-02  0.12502508332482228E-01
 -0.10434361326767304E-01 -0.20655232805675931E-01
  0.71925126851087049E-02  0.20758013837213190E-02
  0.17021079041360889E-02  0.53832371363098383E-02
  0.71888618880770099E-02  0.20715096782903679E-02
 -0.12163549814329740E-01 -0.18637335926224317E-01
  0.22670909823220883E-01  0.23886064900589553E-01
 -0.12163296103115407E-01 -0.18637539298471967E-01
 -0.28889626065450855E-01 -0.22366000244326729E-01
  0.93374048219868533     -0.26341952323006068    
  0.11134188699572764E-01  0.13879492213840539E-01
  0.30208984172165809E-02  0.53909419873264461E-02
 -0.23722233490331181E-02  0.46679712266579987E-02
  0.49469567251612606E-02 -0.10119569161336694E-01
 -0.23711884828974883E-02  0.46699402189555794E-02
 -0.16851502340728815E-03 -0.11397623821189936E-01
  0.88573920442429951E-02 -0.18785223971064656E-01
 -0.17020840111989764E-03 -0.11397710137693673E-01
  0.37124253173390696E-02  0.22208326638784290E-01
  0.81901801956208668E-03  0.65109192005007536E-02
  0.95634754388584498      0.26137855157021012    
  0.95056236979212294      0.24855699268078801    
  0.83542515678882330E-02 -0.35082031508212541E-01
  0.41977047548979806E-03  0.44439304763368617E-01
  0.83608668640944329E-02 -0.35088432055702473E-01
  0.53482498017716276E-02  0.14049826033087225E-01
  0.21802927751436153E-01  0.41065639962472686E-01
  0.53426043740331672E-02  0.14057625254076774E-01
 -0.24981030380187928E-01 -0.31741320121421578E-01
 -0.19830486507498621E-01  0.23710166822953311E-01
  0.14053729561708151E-02 -0.20965894653039233E-02
  0.66146831665313821E-02 -0.28459296947675804E-01
  0.96349725045643486      0.20597408411491747    
 -0.29053970533421064E-02  0.26697233798147389E-01
  0.97966453109555318E-02 -0.45500008515274762E-01
  0.91482989168724278E-02 -0.89348524292836191E-02
  0.11495385590107680E-01  0.52311243580568595E-02
 -0.48117349936717671E-02  0.33494233984428912E-03
 -0.16289024478045769E-01 -0.83550861572168605E-02
  0.82693397458376370E-02 -0.14664175009879185E-02
  0.11193216337447361E-02 -0.21547073252635445E-02
  0.39116852748378086E-02  0.36214199844711172E-01
 -0.10183042826050264E-02  0.31986278802688423E-01
  0.90604601780851035      0.36182686451910878    
 -0.10252207672153989E-02  0.31996754882600002E-01
 -0.54038056106192941E-02 -0.38605013825917431E-02
 -0.44277559302487578E-01 -0.69699691699710548E-01
 -0.54002309070014321E-02 -0.38731161654080130E-02
  0.26661657002713529E-01  0.57359546996076372E-02
  0.10664565614841309E-01 -0.10779836569985112E-01
 -0.18850029148768082E-02  0.87290057929627109E-02
  0.66104678461895543E-02 -0.28459649656379829E-01
  0.97941654645023503E-02 -0.45495297944188488E-01
 -0.29022014682193878E-02  0.26698139377015050E-01
  0.96350313798260789      0.20596199655434741    
 -0.48099724729371912E-02  0.33431588906145549E-03
  0.11495275403018503E-01  0.52352169009626890E-02
  0.91499296376920374E-02 -0.89231192553138536E-02
 -0.16293430636667057E-01 -0.83597309634682714E-02
  0.82602706834608193E-02 -0.14621358279958991E-02
  0.11203036010565344E-02 -0.21559456278327943E-02
  0.28426324184399658E-03  0.10749736075938364E-01
  0.10537085734100797E-01 -0.36867069442981120E-02
 -0.69109144644808433E-02 -0.10076906072468811E-01
 -0.20245720327717659E-02  0.39616497080252194E-02
  0.96038337341027924     -0.19912536239028436    
 -0.10511388980189978E-01 -0.32668595533760003E-01
  0.20461182223609445E-01  0.86800469463276825E-01
  0.13920222761263090E-01 -0.32323895581256932E-02
 -0.66025347371284444E-02  0.24484822211459933E-01
 -0.61307374378906940E-03  0.46760116053347874E-02
  0.96315970545422583E-02  0.37170335948887946E-01
  0.19436972598387051E-02  0.75953034568782126E-02
  0.18213610655795425E-02 -0.64050806311231778E-01
  0.19263213586386742E-02  0.76261928515151782E-02
 -0.27174858493553824E-02 -0.23863661123093634E-01
  0.91416518764043653     -0.26390269598685179    
 -0.27139972935559305E-02 -0.23895413137425880E-01
  0.71523823796563364E-02 -0.31752109665674731E-01
  0.22785949400311093E-01 -0.46979774917818060E-01
  0.39471424040497588E-02  0.31246533069311053E-01
  0.28541551348519785E-03  0.10748687764437817E-01
 -0.20199692603667919E-02  0.39515102382004664E-02
 -0.69131030864773681E-02 -0.10075880817485061E-01
  0.10532923586263464E-01 -0.36787602532576086E-02
  0.20458472379617405E-01  0.86806380353791207E-01
 -0.10509111169312146E-01 -0.32668244594549610E-01
  0.96038374135886795     -0.19912744038261940    
  0.13921794929896304E-01 -0.32339386758619098E-02
 -0.65972531503896356E-02  0.24487501192186258E-01
 -0.61497378789231063E-03  0.46754676054962712E-02
 -0.34445105268519354E-02 -0.31636361497358635E-01
  0.29033441139117034E-02 -0.20278124309419717E-01
  0.31126368584930377E-02  0.14300523437688582E-01
  0.29168203811788611E-02 -0.20301563584043936E-01
 -0.51257603730337628E-02  0.14764676642155033E-02
  0.15179030906779903E-01 -0.22772669515516014E-01
 -0.51287929817378231E-02  0.14981632829391329E-02
  0.86382436208863889     -0.46559076307052910    
 -0.14292989912530165E-01  0.35678278053061216E-01
  0.35701128418572602E-03 -0.21549253433240999E-01
 -0.22316457610344002E-01  0.12571384617865012E-01
  0.11724689832277927E-01 -0.67734652882025324E-02
  0.83566898746680312E-02  0.45107436841081991E-02
  0.11718224484910257E-01 -0.67693881819038621E-02
 -0.11731272670040550E-03  0.28844927578954023E-01
  0.72162743631154023E-02 -0.28861844473066504E-01
 -0.11743052999259863E-03  0.28843744192237307E-01
  0.32411845609985417E-02  0.18213241235816628E-01
  0.92588590114664504      0.26614179767445889    
  0.23605883229780604E-02 -0.11053101117417322E-01
 -0.12302383515591579E-02 -0.32115938490397148E-02
 -0.25011701223955265E-02 -0.68331617232757929E-03
  0.18755525307028152E-02  0.10536053498245969E-01
 -0.25032043574738580E-02 -0.68186990203924873E-03
  0.68553955482572792E-02  0.32356894147590539E-02
  0.33522239958759582E-02  0.33932451151701938E-01
  0.68559617898242249E-02  0.32318184983266317E-02
 -0.64571032060552654E-02 -0.19450732073359098E-01
  0.56335433682575776E-02 -0.15825181935180066E-01
  0.95944684380528400     -0.25915129061555092    
 -0.89382761691702539      0.43637774781633089E-01
 -0.46024165409284168E-01  0.52599227191560877E-01
 -0.68037717279605309E-01  0.78757616407647738E-01
 -0.46015266220422298E-01  0.52657699113058141E-01
 -0.28005689087962367E-01 -0.13871354434199814E-01
  0.41546849462145367E-01  0.11219960221586175    
 -0.27998449735226329E-01 -0.13886504255602094E-01
 -0.52473024438682757E-01 -0.49904670537391872E-01
  0.82174656233664017E-01  0.79762325532604456E-01
  0.24409167137383003E-01  0.10244328890408083E-01
 -0.37944655898397447E-01  0.52770015281752590E-01
 -0.88784886398336760     -0.28020871253921475    
  0.84279310418016312E-02 -0.65276199776494584E-01
  0.14253626650221212E-01 -0.46858014104861796E-02
 -0.37364311710925663E-01  0.17630674303447568E-01
 -0.44162563125356470E-01 -0.90909632069307522E-01
  0.14908620435789138E-03 -0.46571797504036554E-01
  0.59588826556769163E-01  0.60089365222619331E-01
 -0.13551319614218188E-01 -0.82951249597945781E-01
  0.94451417651071005E-03 -0.11160017218690288E-01
 -0.58041440682211128E-01  0.98554645413532260E-01
  0.90246690740815316E-02 -0.63803333773503265E-01
 -0.86304012925904561     -0.29811925400151584    
  0.90104994795633525E-02 -0.63774214611954025E-01
  0.62682264363548873E-01 -0.96736493793554250E-02
 -0.69757600939459770E-02  0.98307557438315277E-02
  0.62680448966593583E-01 -0.96702928394398514E-02
 -0.34421047859349407E-01 -0.36212381816805583E-01
 -0.62388153084890957E-01  0.34488511580651582E-01
 -0.22712640944376885E-01  0.36621221811761168E-01
 -0.37934864973526446E-01  0.52824539950762493E-01
  0.14254226170329381E-01 -0.46854530483133655E-02
  0.84089172214482574E-02 -0.65249974163117286E-01
 -0.88787339783760344     -0.28016943780820142    
  0.14471810661737092E-03 -0.46576975100072894E-01
 -0.44142610157302621E-01 -0.90876860310823177E-01
 -0.37374827289105406E-01  0.17630795981332926E-01
  0.59575882146432571E-01  0.60077072397002142E-01
 -0.13531904374222468E-01 -0.82924197106986966E-01
  0.95086106451880913E-03 -0.11157048770981068E-01
  0.10469981647963779E-02  0.59850317261829532E-02
 -0.56893657813870235E-01 -0.35271143988955117E-01
  0.36501003446911255E-01  0.12282314044382481E-01
  0.38767994295088428E-02 -0.26967800884025957E-01
 -0.85435534011262160      0.25425617953439267    
 -0.26319483340904830E-01  0.11185539651277011E-01
  0.14643903642237195E-01  0.43224413203173887E-02
 -0.67524934902398179E-01 -0.90027216976635613E-01
  0.30971822973309918E-02  0.47703388189196970E-01
 -0.20715819681661831E-01  0.44653284174785444E-01
 -0.11073950302243157     -0.18721317104429022E-01
  0.69041545272611832E-01 -0.20319836277611174E-01
  0.13155184584379635E-01  0.85708985483955821E-01
  0.69010928455584208E-01 -0.20331371791436972E-01
 -0.35220764725691751E-01  0.23654994243520518E-01
 -0.67912620870507767     -0.47919471800503272    
 -0.35219140633751977E-01  0.23660445729996069E-01
 -0.74259271814374847E-01 -0.96695003858458077E-02
 -0.17843115764365267     -0.68943412528621018E-01
  0.45805326482580504E-01 -0.10342366516413001E-01
  0.10619520992294921E-02  0.59885953245896895E-02
  0.38743605250806494E-02 -0.26970598271685325E-01
  0.36497547081389282E-01  0.12281523448440338E-01
 -0.56894895286769831E-01 -0.35270457829301931E-01
  0.14640631250699350E-01  0.43220592849517476E-02
 -0.26331182160860174E-01  0.11189824274425608E-01
 -0.85435310556476418      0.25425568550179561    
 -0.67516048430237424E-01 -0.90033617556524240E-01
  0.30920796804899033E-02  0.47703206634338677E-01
 -0.20717181963467470E-01  0.44654197075566976E-01
  0.84659307936368139E-01 -0.14777379794335528E-01
 -0.23678030930780091E-01  0.53854740147770232E-01
 -0.49396304359971112E-02 -0.58346831111467400E-01
 -0.23661943182500159E-01  0.53854945210588784E-01
  0.13701571525815723E-01 -0.10059403022594479    
 -0.11902988540361904     -0.31721725983741990E-01
  0.13696510679596574E-01 -0.10059993968915153    
 -0.85170140216950474      0.20920934278340003    
  0.43497900751090127E-01 -0.47626877789575486E-01
 -0.22522139743352414E-01  0.68040617101949447E-01
  0.65176878114252379E-01  0.60362008766820421E-01
 -0.13009034378883979E-01 -0.84180806401222052E-01
 -0.69494572131967261E-01  0.30895388682018261E-01
 -0.12994845623668630E-01 -0.84156674808035487E-01
 -0.26507366041861487E-01  0.41481998995868130E-01
  0.81340595936974819E-01  0.21630760656074305    
 -0.26505076328225591E-01  0.41484949681133663E-01
 -0.69061946041113625E-01 -0.78220576098252018E-01
 -0.43134270465395014     -0.70526820592138983    
  0.28292246823641700E-01 -0.15063244523482244E-01
 -0.13553846311059280E-01  0.18564170182812877E-04
  0.12698821134179488E-01 -0.44269815935575244E-03
 -0.26085777215966905E-01  0.10825024051598766E-01
  0.12696056111139156E-01 -0.44311878056580388E-03
 -0.28698882712203257E-01  0.35100183566179055E-01
  0.52690082679790799E-01 -0.31275930455389855E-02
 -0.28699960890778982E-01  0.35100639890665537E-01
  0.31863804842453937E-02  0.74838081509118332E-01
 -0.21008721621382405E-02 -0.20329150834009157E-02
 -0.57886005840092358      0.73713544142727183    
 -0.89382761691701795     -0.43637774781632700E-01
 -0.37944655898397475E-01 -0.52770015281752458E-01
 -0.58041440682211579E-01 -0.98554645413532496E-01
 -0.37934864973526321E-01 -0.52824539950763263E-01
  0.10469981647963228E-02 -0.59850317261829931E-02
 -0.11073950302243210      0.18721317104428880E-01
  0.10619520992295301E-02 -0.59885953245896462E-02
  0.84659307936368680E-01  0.14777379794335464E-01
  0.65176878114251602E-01 -0.60362008766820519E-01
 -0.13553846311059164E-01 -0.18564170182860341E-04
 -0.46024165409284862E-01 -0.52599227191561029E-01
 -0.88784886398337215      0.28020871253922119    
  0.90246690740814449E-02  0.63803333773502544E-01
  0.14254226170329481E-01  0.46854530483133611E-02
 -0.56893657813870194E-01  0.35271143988955443E-01
  0.69041545272611610E-01  0.20319836277611119E-01
  0.38743605250807873E-02  0.26970598271685398E-01
 -0.23678030930779789E-01 -0.53854740147770967E-01
 -0.13009034378884175E-01  0.84180806401222108E-01
  0.12698821134179673E-01  0.44269815935574995E-03
 -0.68037717279605212E-01 -0.78757616407649181E-01
  0.84279310418019001E-02  0.65276199776494126E-01
 -0.86304012925904905      0.29811925400151362    
  0.84089172214487796E-02  0.65249974163117494E-01
  0.36501003446911533E-01 -0.12282314044382523E-01
  0.13155184584379948E-01 -0.85708985483955252E-01
  0.36497547081389574E-01 -0.12281523448440315E-01
 -0.49396304359971789E-02  0.58346831111467358E-01
 -0.69494572131966498E-01 -0.30895388682018354E-01
 -0.26085777215966943E-01 -0.10825024051598804E-01
 -0.46015266220423401E-01 -0.52657699113057094E-01
  0.14253626650221214E-01  0.46858014104861215E-02
  0.90104994795639111E-02  0.63774214611954441E-01
 -0.88787339783760344      0.28016943780820303    
  0.38767994295088363E-02  0.26967800884025745E-01
  0.69010928455584528E-01  0.20331371791437299E-01
 -0.56894895286770115E-01  0.35270457829301910E-01
 -0.23661943182500225E-01 -0.53854945210589047E-01
 -0.12994845623668668E-01  0.84156674808035820E-01
  0.12696056111139024E-01  0.44311878056587766E-03
 -0.28005689087962190E-01  0.13871354434199934E-01
 -0.37364311710925385E-01 -0.17630674303447249E-01
  0.62682264363548665E-01  0.96736493793554597E-02
  0.14471810661736354E-03  0.46576975100072839E-01
 -0.85435534011261793     -0.25425617953439150    
 -0.35220764725692230E-01 -0.23654994243520459E-01
  0.14640631250699561E-01 -0.43220592849518048E-02
  0.13701571525815481E-01  0.10059403022594446    
 -0.26507366041861553E-01 -0.41481998995868172E-01
 -0.28698882712203135E-01 -0.35100183566178784E-01
  0.41546849462145888E-01 -0.11219960221586059    
 -0.44162563125356796E-01  0.90909632069306148E-01
 -0.69757600939460186E-02 -0.98307557438317948E-02
 -0.44142610157302815E-01  0.90876860310823621E-01
 -0.26319483340904854E-01 -0.11185539651277016E-01
 -0.67912620870507612      0.47919471800503394    
 -0.26331182160860070E-01 -0.11189824274425211E-01
 -0.11902988540361868      0.31721725983742177E-01
  0.81340595936974583E-01 -0.21630760656074252    
  0.52690082679790563E-01  0.31275930455388632E-02
 -0.27998449735226381E-01  0.13886504255601766E-01
  0.14908620435796581E-03  0.46571797504037206E-01
  0.62680448966593805E-01  0.96702928394399382E-02
 -0.37374827289105413E-01 -0.17630795981333179E-01
  0.14643903642237480E-01 -0.43224413203174408E-02
 -0.35219140633751818E-01 -0.23660445729996323E-01
 -0.85435310556476785     -0.25425568550179717    
  0.13696510679596529E-01  0.10059993968915179    
 -0.26505076328225373E-01 -0.41484949681134149E-01
 -0.28699960890778944E-01 -0.35100639890665856E-01
 -0.52473024438682854E-01  0.49904670537391109E-01
  0.59588826556768802E-01 -0.60089365222619373E-01
 -0.34421047859349706E-01  0.36212381816805327E-01
  0.59575882146432557E-01 -0.60077072397003252E-01
 -0.67524934902397568E-01  0.90027216976635807E-01
 -0.74259271814374542E-01  0.96695003858456689E-02
 -0.67516048430237632E-01  0.90033617556524573E-01
 -0.85170140216950607     -0.20920934278340034    
 -0.69061946041114736E-01  0.78220576098251712E-01
  0.31863804842453456E-02 -0.74838081509117305E-01
  0.82174656233662768E-01 -0.79762325532605316E-01
 -0.13551319614218243E-01  0.82951249597945254E-01
 -0.62388153084891491E-01 -0.34488511580651443E-01
 -0.13531904374222588E-01  0.82924197106986355E-01
  0.30971822973310335E-02 -0.47703388189196796E-01
 -0.17843115764365192      0.68943412528622475E-01
  0.30920796804898049E-02 -0.47703206634338795E-01
  0.43497900751090043E-01  0.47626877789575243E-01
 -0.43134270465394886      0.70526820592138884    
 -0.21008721621382106E-02  0.20329150834008818E-02
  0.24409167137383080E-01 -0.10244328890408072E-01
  0.94451417651064359E-03  0.11160017218690357E-01
 -0.22712640944377097E-01 -0.36621221811761188E-01
  0.95086106451874452E-03  0.11157048770981023E-01
 -0.20715819681661741E-01 -0.44653284174785340E-01
  0.45805326482580275E-01  0.10342366516412911E-01
 -0.20717181963467578E-01 -0.44654197075567066E-01
 -0.22522139743352588E-01 -0.68040617101950029E-01
  0.28292246823641651E-01  0.15063244523482318E-01
 -0.57886005840092380     -0.73713544142726972    
   2.2456458664979078       1.2273679840819804       7.0234669875244604    
   2.7573599714593504      0.96601373527847212       6.2893223063976240    
   2.2455510516360127       1.8558892988420335       6.3303627655180357    
   1.7337306521658620      0.96599765614099620       6.2894684801895790    
   3.0078725744038275     -0.82750213704455589       7.5453663608774013    
   2.2455712779819632      -1.2540756388691270       5.5921202772454839    
   1.4832778755917011     -0.82749914654780188       7.5453624277630684    
   2.2455736506088022      -2.1263689174372096       7.5438790770512041    
   2.2455716011097717       1.2528866967149399       4.6414869974404169    
   2.2455730440247925      -1.2563707225951000       9.0111851850569273    
   2.6270402692079244    
   2.5393811028011797    
   2.5629227947932307    
   2.5393387368514837    
   4.2616562537085940    
   4.5334076148951965    
   4.2616624694035181    
   4.2294595593487685    
   3.4272127573935656    
   1.2379790871747645    
