 vasp.5.4.4.18Apr17-6-g9f103f2a35 (build Nov 28 2017 01:56:59) complex          
  
 executed on           IFC91_ompi date 2019.03.09  05:00:11
 running on   27 total cores
 distrk:  each k-point on    3 cores,    9 groups
 distr:  one band on NCORES_PER_BAND=   1 cores,    3 groups


--------------------------------------------------------------------------------------------------------


 INCAR:
 POTCAR:    PAW_PBE Mo 08Apr2002                  
 POTCAR:    PAW_PBE S 06Sep2000                   

 ----------------------------------------------------------------------------- 
|                                                                             |
|           W    W    AA    RRRRR   N    N  II  N    N   GGGG   !!!           |
|           W    W   A  A   R    R  NN   N  II  NN   N  G    G  !!!           |
|           W    W  A    A  R    R  N N  N  II  N N  N  G       !!!           |
|           W WW W  AAAAAA  RRRRR   N  N N  II  N  N N  G  GGG   !            |
|           WW  WW  A    A  R   R   N   NN  II  N   NN  G    G                |
|           W    W  A    A  R    R  N    N  II  N    N   GGGG   !!!           |
|                                                                             |
|      For optimal performance we recommend to set                            |
|        NCORE= 4 - approx SQRT( number of cores)                             |
|      NCORE specifies how many cores store one orbital (NPAR=cpu/NCORE).     |
|      This setting can  greatly improve the performance of VASP for DFT.     |
|      The default,   NCORE=1            might be grossly inefficient         |
|      on modern multi-core architectures or massively parallel machines.     |
|      Do your own testing !!!!                                               |
|      Unfortunately you need to use the default for GW and RPA calculations. |
|      (for HF NCORE is supported but not extensively tested yet)             |
|                                                                             |
 ----------------------------------------------------------------------------- 


 ----------------------------------------------------------------------------- 
|                                                                             |
|           W    W    AA    RRRRR   N    N  II  N    N   GGGG   !!!           |
|           W    W   A  A   R    R  NN   N  II  NN   N  G    G  !!!           |
|           W    W  A    A  R    R  N N  N  II  N N  N  G       !!!           |
|           W WW W  AAAAAA  RRRRR   N  N N  II  N  N N  G  GGG   !            |
|           WW  WW  A    A  R   R   N   NN  II  N   NN  G    G                |
|           W    W  A    A  R    R  N    N  II  N    N   GGGG   !!!           |
|                                                                             |
|      You have enabled k-point parallelism (KPAR>1).                         |
|      This developmental code was originally  written by Paul Kent at ORNL,  |
|      and carefully double checked in Vienna.                                |
|      GW as well as linear response parallelism added by Martijn Marsman     |
|      and Georg Kresse.                                                      |
|      Carefully verify results versus KPAR=1.                                |
|      Report problems to Paul Kent and Vienna.                               |
|                                                                             |
 ----------------------------------------------------------------------------- 

 POTCAR:    PAW_PBE Mo 08Apr2002                  
   VRHFIN =Mo: 4p5s4d                                                           
   LEXCH  = PE                                                                  
   EATOM  =   217.5176 eV,   15.9871 Ry                                         
                                                                                
   TITEL  = PAW_PBE Mo 08Apr2002                                                
   LULTRA =        F    use ultrasoft PP ?                                      
   IUNSCR =        1    unscreen: 0-lin 1-nonlin 2-no                           
   RPACOR =    2.200    partial core radius                                     
   POMASS =   95.940; ZVAL   =    6.000    mass and valenz                      
   RCORE  =    2.750    outmost cutoff radius                                   
   RWIGS  =    2.750; RWIGS  =    1.455    wigner-seitz radius (au A)           
   ENMAX  =  224.584; ENMIN  =  168.438 eV                                      
   RCLOC  =    2.111    cutoff for local pot                                    
   LCOR   =        T    correct aug charges                                     
   LPAW   =        T    paw PP                                                  
   EAUG   =  345.278                                                            
   DEXC   =    0.000                                                            
   RMAX   =    2.821    core radius for proj-oper                               
   RAUG   =    1.300    factor for augmentation sphere                          
   RDEP   =    2.815    radius for radial grids                                 
   RDEPT  =    2.211    core radius for aug-charge                              
                                                                                
   Atomic configuration                                                         
   12 entries                                                                   
     n  l   j            E        occ.                                          
     1  0  0.50    -19819.0341   2.0000                                         
     2  0  0.50     -2799.0127   2.0000                                         
     2  1  1.50     -2502.0276   6.0000                                         
     3  0  0.50      -476.4448   2.0000                                         
     3  1  1.50      -379.1496   6.0000                                         
     3  2  2.50      -220.9367  10.0000                                         
     4  0  0.50       -64.3378   2.0000                                         
     4  1  1.50       -38.4773   6.0000                                         
     4  2  2.50        -3.7535   5.0000                                         
     5  0  0.50        -4.0862   1.0000                                         
     5  1  0.50        -2.7701   0.0000                                         
     4  3  2.50        -1.3606   0.0000                                         
   Description                                                                  
     l       E           TYP  RCUT    TYP  RCUT                                 
     2     -3.7534765     23  2.500                                             
     2     -5.1140591     23  2.500                                             
     0     -4.0861560     23  2.600                                             
     0     13.6058260     23  2.600                                             
     1      5.4423304     23  2.750                                             
     1     27.2116520     23  2.750                                             
  local pseudopotential read in
  partial core-charges read in
  partial kinetic energy density read in
  atomic valenz-charges read in
  non local Contribution for L=           2  read in
    real space projection operators read in
  non local Contribution for L=           2  read in
    real space projection operators read in
  non local Contribution for L=           0  read in
    real space projection operators read in
  non local Contribution for L=           0  read in
    real space projection operators read in
  non local Contribution for L=           1  read in
    real space projection operators read in
  non local Contribution for L=           1  read in
    real space projection operators read in
    PAW grid and wavefunctions read in
 
   number of l-projection  operators is LMAX  =           6
   number of lm-projection operators is LMMAX =          18
 
 POTCAR:    PAW_PBE S 06Sep2000                   
   VRHFIN =S : s2p4                                                             
   LEXCH  = PE                                                                  
   EATOM  =   276.8230 eV,   20.3459 Ry                                         
                                                                                
   TITEL  = PAW_PBE S 06Sep2000                                                 
   LULTRA =        F    use ultrasoft PP ?                                      
   IUNSCR =        1    unscreen: 0-lin 1-nonlin 2-no                           
   RPACOR =    1.500    partial core radius                                     
   POMASS =   32.066; ZVAL   =    6.000    mass and valenz                      
   RCORE  =    1.900    outmost cutoff radius                                   
   RWIGS  =    2.200; RWIGS  =    1.164    wigner-seitz radius (au A)           
   ENMAX  =  258.689; ENMIN  =  194.016 eV                                      
   ICORE  =        2    local potential                                         
   LCOR   =        T    correct aug charges                                     
   LPAW   =        T    paw PP                                                  
   EAUG   =  335.092                                                            
   DEXC   =    0.000                                                            
   RMAX   =    1.942    core radius for proj-oper                               
   RAUG   =    1.300    factor for augmentation sphere                          
   RDEP   =    1.954    radius for radial grids                                 
   RDEPT  =    1.744    core radius for aug-charge                              
                                                                                
   Atomic configuration                                                         
    6 entries                                                                   
     n  l   j            E        occ.                                          
     1  0  0.50     -2405.8406   2.0000                                         
     2  0  0.50      -211.7007   2.0000                                         
     2  1  1.50      -156.4958   6.0000                                         
     3  0  0.50       -17.2562   2.0000                                         
     3  1  0.50        -7.0085   4.0000                                         
     3  2  1.50        -6.8029   0.0000                                         
   Description                                                                  
     l       E           TYP  RCUT    TYP  RCUT                                 
     0    -17.2561641     23  1.900                                             
     0    -15.8743224     23  1.900                                             
     1     -7.0085400     23  1.900                                             
     1     -2.7779785     23  1.900                                             
     2     -6.8029130     23  1.900                                             
  local pseudopotential read in
  partial core-charges read in
  partial kinetic energy density read in
  atomic valenz-charges read in
  non local Contribution for L=           0  read in
    real space projection operators read in
  non local Contribution for L=           0  read in
    real space projection operators read in
  non local Contribution for L=           1  read in
    real space projection operators read in
  non local Contribution for L=           1  read in
    real space projection operators read in
    PAW grid and wavefunctions read in
 
   number of l-projection  operators is LMAX  =           4
   number of lm-projection operators is LMMAX =           8
 
  PAW_PBE Mo 08Apr2002                  :
 energy of atom  1       EATOM= -217.5176
 kinetic energy error for atom=    0.0025 (will be added to EATOM!!)
  PAW_PBE S 06Sep2000                   :
 energy of atom  2       EATOM= -276.8230
 kinetic energy error for atom=    0.0046 (will be added to EATOM!!)
 
 
 POSCAR: mos2 monolayer                          
  positions in direct lattice
  velocities in cartesian coordinates
 exchange correlation table for  LEXCH =        8
   RHO(1)=    0.500       N(1)  =     2000
   RHO(2)=  100.500       N(2)  =     4000
 


--------------------------------------------------------------------------------------------------------


 ion  position               nearest neighbor table
   1  0.000  0.000  0.033-   2 2.41   3 2.41   2 2.41   3 2.41   2 2.41   3 2.41
   2  0.667  0.333  0.000-   1 2.41   1 2.41   1 2.41
   3  0.667  0.333  0.065-   1 2.41   1 2.41   1 2.41
 
  LATTYP: Found a hexagonal cell.
 ALAT       =     3.1900000000
 C/A-ratio  =    15.0000000000
  
  Lattice vectors:
  
 A1 = (   1.5950000000,  -2.7626210381,   0.0000000000)
 A2 = (   1.5950000000,   2.7626210381,   0.0000000000)
 A3 = (   0.0000000000,   0.0000000000,  47.8500000000)


Analysis of symmetry for initial positions (statically):
=====================================================================
 Subroutine PRICEL returns:
 Original cell was already a primitive cell.
 

 Routine SETGRP: Setting up the symmetry group for a 
 hexagonal supercell.


 Subroutine GETGRP returns: Found  4 space group operations
 (whereof  2 operations were pure point group operations)
 out of a pool of 24 trial point group operations.


The static configuration has the point symmetry C_1h.
 The point group associated with its full space group is C_2v.


Analysis of symmetry for dynamics (positions and initial velocities):
=====================================================================
 Subroutine PRICEL returns:
 Original cell was already a primitive cell.
 

 Routine SETGRP: Setting up the symmetry group for a 
 hexagonal supercell.


 Subroutine GETGRP returns: Found  4 space group operations
 (whereof  2 operations were pure point group operations)
 out of a pool of 24 trial point group operations.


The dynamic configuration has the point symmetry C_1h.
 The point group associated with its full space group is C_2v.


Analysis of constrained symmetry for selective dynamics:
=====================================================================
 Subroutine PRICEL returns:
 Original cell was already a primitive cell.
 

 Routine SETGRP: Setting up the symmetry group for a 
 hexagonal supercell.


 Subroutine GETGRP returns: Found  4 space group operations
 (whereof  2 operations were pure point group operations)
 out of a pool of 24 trial point group operations.


The constrained configuration has the point symmetry C_1h.
 The point group associated with its full space group is C_2v.


 Subroutine INISYM returns: Found  4 space group operations
 (whereof  2 operations are pure point group operations),
 and found     1 'primitive' translations

 
 
 KPOINTS: mos2 mono                               

Automatic generation of k-mesh.
Space group operators:
 irot       det(A)        alpha          n_x          n_y          n_z        tau_x        tau_y        tau_z
    1     1.000000     0.000001     1.000000     0.000000     0.000000     0.000000     0.000000     0.000000
    2    -1.000000   180.000000    -0.500000    -0.866025     0.000000     0.000000     0.000000     0.000000
    3    -1.000000   180.000000     0.000000     0.000000     1.000000     0.000000     0.000000     0.065400
    4     1.000000   180.000000     0.866025    -0.500000     0.000000     0.000000     0.000000     0.065400
 
 Subroutine IBZKPT returns following result:
 ===========================================
 
 Found     25 irreducible k-points:
 
 Following reciprocal coordinates:
            Coordinates               Weight
  0.000000  0.000000  0.000000      1.000000
  0.111111 -0.000000  0.000000      2.000000
  0.222222  0.000000  0.000000      2.000000
  0.333333  0.000000  0.000000      2.000000
  0.444444  0.000000  0.000000      2.000000
 -0.000000  0.111111  0.000000      4.000000
  0.111111  0.111111  0.000000      4.000000
  0.222222  0.111111  0.000000      4.000000
  0.333333  0.111111  0.000000      4.000000
  0.444444  0.111111  0.000000      2.000000
  0.000000  0.222222  0.000000      4.000000
  0.111111  0.222222  0.000000      4.000000
  0.222222  0.222222  0.000000      4.000000
  0.333333  0.222222  0.000000      4.000000
 -0.111111  0.222222  0.000000      2.000000
  0.000000  0.333333  0.000000      4.000000
  0.111111  0.333333  0.000000      4.000000
  0.222222  0.333333  0.000000      4.000000
  0.333333  0.333333  0.000000      2.000000
 -0.222222  0.333333  0.000000      4.000000
  0.000000  0.444444  0.000000      4.000000
  0.111111  0.444444  0.000000      4.000000
  0.222222  0.444444  0.000000      4.000000
 -0.333333  0.444444  0.000000      4.000000
 -0.222222  0.444444  0.000000      2.000000
 
 Following cartesian coordinates:
            Coordinates               Weight
  0.000000  0.000000  0.000000      1.000000
  0.111111 -0.064150  0.000000      2.000000
  0.222222 -0.128300  0.000000      2.000000
  0.333333 -0.192450  0.000000      2.000000
  0.444444 -0.256600  0.000000      2.000000
  0.111111  0.064150  0.000000      4.000000
  0.222222  0.000000  0.000000      4.000000
  0.333333 -0.064150  0.000000      4.000000
  0.444444 -0.128300  0.000000      4.000000
  0.555556 -0.192450  0.000000      2.000000
  0.222222  0.128300  0.000000      4.000000
  0.333333  0.064150  0.000000      4.000000
  0.444444  0.000000  0.000000      4.000000
  0.555556 -0.064150  0.000000      4.000000
  0.111111  0.192450  0.000000      2.000000
  0.333333  0.192450  0.000000      4.000000
  0.444444  0.128300  0.000000      4.000000
  0.555556  0.064150  0.000000      4.000000
  0.666667  0.000000  0.000000      2.000000
  0.111111  0.320750  0.000000      4.000000
  0.444444  0.256600  0.000000      4.000000
  0.555556  0.192450  0.000000      4.000000
  0.666667  0.128300  0.000000      4.000000
  0.111111  0.449050  0.000000      4.000000
  0.222222  0.384900  0.000000      2.000000
 
 
 Subroutine IBZKPT_HF returns following result:
 ==============================================
 
 Found     81 k-points in 1st BZ
 the following     81 k-points will be used (e.g. in the exchange kernel)
 Following reciprocal coordinates:   # in IRBZ
  0.000000  0.000000  0.000000    0.01234568   1 t-inv F
  0.111111 -0.000000  0.000000    0.01234568   2 t-inv F
  0.222222  0.000000  0.000000    0.01234568   3 t-inv F
  0.333333  0.000000  0.000000    0.01234568   4 t-inv F
  0.444444  0.000000  0.000000    0.01234568   5 t-inv F
 -0.000000  0.111111  0.000000    0.01234568   6 t-inv F
  0.111111  0.111111  0.000000    0.01234568   7 t-inv F
  0.222222  0.111111  0.000000    0.01234568   8 t-inv F
  0.333333  0.111111  0.000000    0.01234568   9 t-inv F
  0.444444  0.111111  0.000000    0.01234568  10 t-inv F
  0.000000  0.222222  0.000000    0.01234568  11 t-inv F
  0.111111  0.222222  0.000000    0.01234568  12 t-inv F
  0.222222  0.222222  0.000000    0.01234568  13 t-inv F
  0.333333  0.222222  0.000000    0.01234568  14 t-inv F
 -0.111111  0.222222  0.000000    0.01234568  15 t-inv F
  0.000000  0.333333  0.000000    0.01234568  16 t-inv F
  0.111111  0.333333  0.000000    0.01234568  17 t-inv F
  0.222222  0.333333  0.000000    0.01234568  18 t-inv F
  0.333333  0.333333  0.000000    0.01234568  19 t-inv F
 -0.222222  0.333333  0.000000    0.01234568  20 t-inv F
  0.000000  0.444444  0.000000    0.01234568  21 t-inv F
  0.111111  0.444444  0.000000    0.01234568  22 t-inv F
  0.222222  0.444444  0.000000    0.01234568  23 t-inv F
 -0.333333  0.444444  0.000000    0.01234568  24 t-inv F
 -0.222222  0.444444  0.000000    0.01234568  25 t-inv F
  0.111111 -0.111111  0.000000    0.01234568   6 t-inv F
  0.222222 -0.111111  0.000000    0.01234568   7 t-inv F
  0.333333 -0.111111  0.000000    0.01234568   8 t-inv F
  0.444444 -0.111111  0.000000    0.01234568   9 t-inv F
  0.555556 -0.111111  0.000000    0.01234568  10 t-inv F
  0.222222 -0.222222  0.000000    0.01234568  11 t-inv F
  0.333333 -0.222222  0.000000    0.01234568  12 t-inv F
  0.444444 -0.222222  0.000000    0.01234568  13 t-inv F
  0.555556 -0.222222  0.000000    0.01234568  14 t-inv F
  0.111111 -0.222222  0.000000    0.01234568  15 t-inv F
  0.333333 -0.333333  0.000000    0.01234568  16 t-inv F
  0.444444 -0.333333  0.000000    0.01234568  17 t-inv F
  0.555556 -0.333333  0.000000    0.01234568  18 t-inv F
  0.666667 -0.333333  0.000000    0.01234568  19 t-inv F
  0.111111 -0.333333  0.000000    0.01234568  20 t-inv F
  0.444444 -0.444444  0.000000    0.01234568  21 t-inv F
  0.555556 -0.444444  0.000000    0.01234568  22 t-inv F
  0.666667 -0.444444  0.000000    0.01234568  23 t-inv F
  0.111111 -0.444444  0.000000    0.01234568  24 t-inv F
  0.222222 -0.444444  0.000000    0.01234568  25 t-inv F
 -0.111111  0.000000  0.000000    0.01234568   2 t-inv T
 -0.222222  0.000000  0.000000    0.01234568   3 t-inv T
 -0.333333 -0.000000  0.000000    0.01234568   4 t-inv T
 -0.444444  0.000000  0.000000    0.01234568   5 t-inv T
  0.000000 -0.111111  0.000000    0.01234568   6 t-inv T
 -0.111111  0.111111  0.000000    0.01234568   6 t-inv T
 -0.111111 -0.111111  0.000000    0.01234568   7 t-inv T
 -0.222222  0.111111  0.000000    0.01234568   7 t-inv T
 -0.222222 -0.111111  0.000000    0.01234568   8 t-inv T
 -0.333333  0.111111  0.000000    0.01234568   8 t-inv T
 -0.333333 -0.111111  0.000000    0.01234568   9 t-inv T
 -0.444444  0.111111  0.000000    0.01234568   9 t-inv T
  0.000000 -0.222222  0.000000    0.01234568  11 t-inv T
 -0.222222  0.222222  0.000000    0.01234568  11 t-inv T
 -0.111111 -0.222222  0.000000    0.01234568  12 t-inv T
 -0.333333  0.222222  0.000000    0.01234568  12 t-inv T
 -0.222222 -0.222222  0.000000    0.01234568  13 t-inv T
 -0.444444  0.222222  0.000000    0.01234568  13 t-inv T
 -0.333333 -0.222222  0.000000    0.01234568  14 t-inv T
 -0.555556  0.222222  0.000000    0.01234568  14 t-inv T
 -0.000000 -0.333333  0.000000    0.01234568  16 t-inv T
 -0.333333  0.333333  0.000000    0.01234568  16 t-inv T
 -0.111111 -0.333333  0.000000    0.01234568  17 t-inv T
 -0.444444  0.333333  0.000000    0.01234568  17 t-inv T
 -0.222222 -0.333333  0.000000    0.01234568  18 t-inv T
 -0.555556  0.333333  0.000000    0.01234568  18 t-inv T
  0.222222 -0.333333  0.000000    0.01234568  20 t-inv T
 -0.111111  0.333333  0.000000    0.01234568  20 t-inv T
  0.000000 -0.444444  0.000000    0.01234568  21 t-inv T
 -0.444444  0.444444  0.000000    0.01234568  21 t-inv T
 -0.111111 -0.444444  0.000000    0.01234568  22 t-inv T
 -0.555556  0.444444  0.000000    0.01234568  22 t-inv T
 -0.222222 -0.444444  0.000000    0.01234568  23 t-inv T
 -0.666667  0.444444  0.000000    0.01234568  23 t-inv T
  0.333333 -0.444444  0.000000    0.01234568  24 t-inv T
 -0.111111  0.444444  0.000000    0.01234568  24 t-inv T


--------------------------------------------------------------------------------------------------------




 Dimension of arrays:
   k-points           NKPTS =     25   k-points in BZ     NKDIM =     25   number of bands    NBANDS=     60
   number of dos      NEDOS =    301   number of ions     NIONS =      3
   non local maximal  LDIM  =      6   non local SUM 2l+1 LMDIM =     18
   total plane-waves  NPLWV = 184320
   max r-space proj   IRMAX =      1   max aug-charges    IRDMAX=  28260
   dimension x,y,z NGX =    24 NGY =   24 NGZ =  320
   dimension x,y,z NGXF=    48 NGYF=   48 NGZF=  640
   support grid    NGXF=    48 NGYF=   48 NGZF=  640
   ions per type =               1   2
   NGX,Y,Z   is equivalent  to a cutoff of  12.51, 12.51, 11.12 a.u.
   NGXF,Y,Z  is equivalent  to a cutoff of  25.02, 25.02, 22.24 a.u.

 SYSTEM =  MoS2_ml                                 
 POSCAR =  mos2 monolayer                          

 Startparameter for this run:
   NWRITE =      2    write-flag & timer
   PREC   = acc       normal or accurate (medium, high low for compatibility)
   ISTART =      0    job   : 0-new  1-cont  2-samecut
   ICHARG =      2    charge: 1-file 2-atom 10-const
   ISPIN  =      1    spin polarized calculation?
   LNONCOLLINEAR =      F non collinear calculations
   LSORBIT =      F    spin-orbit coupling
   INIWAV =      1    electr: 0-lowe 1-rand  2-diag
   LASPH  =      F    aspherical Exc in radial PAW
   METAGGA=      F    non-selfconsistent MetaGGA calc.

 Electronic Relaxation 1
   ENCUT  =  400.0 eV  29.40 Ry    5.42 a.u.   5.20  5.20 78.03*2*pi/ulx,y,z
   ENINI  =  400.0     initial cutoff
   ENAUG  =  345.3 eV  augmentation charge cutoff
   NELM   =     50;   NELMIN=  2; NELMDL= -5     # of ELM steps 
   EDIFF  = 0.1E-07   stopping-criterion for ELM
   LREAL  =      F    real-space projection
   NLSPLINE    = F    spline interpolate recip. space projectors
   LCOMPAT=      F    compatible to vasp.4.4
   GGA_COMPAT  = T    GGA compatible to vasp.4.4-vasp.4.6
   LMAXPAW     = -100 max onsite density
   LMAXMIX     =    2 max onsite mixed and CHGCAR
   VOSKOWN=      0    Vosko Wilk Nusair interpolation
   ROPT   =    0.00000   0.00000
 Ionic relaxation
   EDIFFG = 0.1E-06   stopping-criterion for IOM
   NSW    =      0    number of steps for IOM
   NBLOCK =      1;   KBLOCK =      1    inner block; outer block 
   IBRION =     -1    ionic relax: 0-MD 1-quasi-New 2-CG
   NFREE  =      0    steps in history (QN), initial steepest desc. (CG)
   ISIF   =      2    stress and relaxation
   IWAVPR =     10    prediction:  0-non 1-charg 2-wave 3-comb
   ISYM   =      2    0-nonsym 1-usesym 2-fastsym
   LCORR  =      T    Harris-Foulkes like correction to forces

   POTIM  = 0.5000    time-step for ionic-motion
   TEIN   =    0.0    initial temperature
   TEBEG  =    0.0;   TEEND  =   0.0 temperature during run
   SMASS  =  -3.00    Nose mass-parameter (am)
   estimated Nose-frequenzy (Omega)   =  0.10E-29 period in steps =****** mass=  -0.233E-27a.u.
   SCALEE = 1.0000    scale energy and forces
   NPACO  =    256;   APACO  = 16.0  distance and # of slots for P.C.
   PSTRESS=    0.0 pullay stress

  Mass of Ions in am
   POMASS =  95.94 32.07
  Ionic Valenz
   ZVAL   =   6.00  6.00
  Atomic Wigner-Seitz radii
   RWIGS  =  -1.00 -1.00
  virtual crystal weights 
   VCA    =   1.00  1.00
   NELECT =      18.0000    total number of electrons
   NUPDOWN=      -1.0000    fix difference up-down

 DOS related values:
   EMIN   =  10.00;   EMAX   =-10.00  energy-range for DOS
   EFERMI =   0.00
   ISMEAR =     0;   SIGMA  =   0.05  broadening in eV -4-tet -1-fermi 0-gaus

 Electronic relaxation 2 (details)
   IALGO  =     38    algorithm
   LDIAG  =      T    sub-space diagonalisation (order eigenvalues)
   LSUBROT=      F    optimize rotation matrix (better conditioning)
   TURBO    =      0    0=normal 1=particle mesh
   IRESTART =      0    0=no restart 2=restart with 2 vectors
   NREBOOT  =      0    no. of reboots
   NMIN     =      0    reboot dimension
   EREF     =   0.00    reference energy to select bands
   IMIX   =      4    mixing-type and parameters
     AMIX     =   0.40;   BMIX     =  1.00
     AMIX_MAG =   1.60;   BMIX_MAG =  1.00
     AMIN     =   0.10
     WC   =   100.;   INIMIX=   1;  MIXPRE=   1;  MAXMIX= -45

 Intra band minimization:
   WEIMIN = 0.0000     energy-eigenvalue tresh-hold
   EBREAK =  0.42E-10  absolut break condition
   DEPER  =   0.30     relativ break condition  

   TIME   =   0.40     timestep for ELM

  volume/ion in A,a.u.               =     140.56       948.57
  Fermi-wavevector in a.u.,A,eV,Ry     =   0.572138  1.081185  4.453761  0.327342
  Thomas-Fermi vector in A             =   1.612889
 
 Write flags
   LWAVE        =      T    write WAVECAR
   LDOWNSAMPLE  =      F    k-point downsampling of WAVECAR
   LCHARG       =      T    write CHGCAR
   LVTOT        =      F    write LOCPOT, total local potential
   LVHAR        =      F    write LOCPOT, Hartree potential only
   LELF         =      F    write electronic localiz. function (ELF)
   LORBIT       =     12    0 simple, 1 ext, 2 COOP (PROOUT), +10 PAW based schemes


 Dipole corrections
   LMONO  =      F    monopole corrections only (constant potential shift)
   LDIPOL =      F    correct potential (dipole corrections)
   IDIPOL =      0    1-x, 2-y, 3-z, 4-all directions 
   EPSILON=  1.0000000 bulk dielectric constant

 Exchange correlation treatment:
   GGA     =    --    GGA type
   LEXCH   =     8    internal setting for exchange type
   VOSKOWN=      0    Vosko Wilk Nusair interpolation
   LHFCALC =     F    Hartree Fock is set to
   LHFONE  =     F    Hartree Fock one center treatment
   AEXX    =    0.0000 exact exchange contribution

 Linear response parameters
   LEPSILON=     F    determine dielectric tensor
   LRPA    =     F    only Hartree local field effects (RPA)
   LNABLA  =     F    use nabla operator in PAW spheres
   LVEL    =     F    velocity operator in full k-point grid
   LINTERFAST=   F  fast interpolation
   KINTER  =     0    interpolate to denser k-point grid
   CSHIFT  =0.1000    complex shift for real part using Kramers Kronig
   OMEGAMAX=  -1.0    maximum frequency
   DEG_THRESHOLD= 0.2000000E-02 threshold for treating states as degnerate
   RTIME   =   -0.100 relaxation time in fs
  (WPLASMAI=    0.000 imaginary part of plasma frequency in eV, 0.658/RTIME)
   DFIELD  = 0.0000000 0.0000000 0.0000000 field for delta impulse in time
 
 Orbital magnetization related:
   ORBITALMAG=     F  switch on orbital magnetization
   LCHIMAG   =     F  perturbation theory with respect to B field
   DQ        =  0.001000  dq finite difference perturbation B field
   LLRAUG    =     F  two centre corrections for induced B field



--------------------------------------------------------------------------------------------------------


 Static calculation
 charge density and potential will be updated during run
 non-spin polarized calculation
 Variant of blocked Davidson
 Davidson routine will perform the subspace rotation
 perform sub-space diagonalisation
    after iterative eigenvector-optimisation
 modified Broyden-mixing scheme, WC =      100.0
 initial mixing is a Kerker type mixing with AMIX =  0.4000 and BMIX =      1.0000
 Hartree-type preconditioning will be used
 using additional bands           51
 reciprocal scheme for non local part
 use partial core corrections
 calculate Harris-corrections to forces 
   (improved forces if not selfconsistent)
 use gradient corrections 
 use of overlap-Matrix (Vanderbilt PP)
 Gauss-broadening in eV      SIGMA  =   0.05


--------------------------------------------------------------------------------------------------------


  energy-cutoff  :      400.00
  volume of cell :      421.69
      direct lattice vectors                 reciprocal lattice vectors
     1.595000000 -2.762621038  0.000000000     0.313479624 -0.180987545  0.000000000
     1.595000000  2.762621038  0.000000000     0.313479624  0.180987545  0.000000000
     0.000000000  0.000000000 47.850000000     0.000000000  0.000000000  0.020898642

  length of vectors
     3.190000000  3.190000000 47.850000000     0.361975090  0.361975090  0.020898642


 
 k-points in units of 2pi/SCALE and weight: mos2 mono                               
   0.00000000  0.00000000  0.00000000       0.012
   0.11111111 -0.06415003  0.00000000       0.025
   0.22222222 -0.12830006  0.00000000       0.025
   0.33333333 -0.19245009  0.00000000       0.025
   0.44444444 -0.25660012  0.00000000       0.025
   0.11111111  0.06415003  0.00000000       0.049
   0.22222222  0.00000000  0.00000000       0.049
   0.33333333 -0.06415003  0.00000000       0.049
   0.44444444 -0.12830006  0.00000000       0.049
   0.55555556 -0.19245009  0.00000000       0.025
   0.22222222  0.12830006  0.00000000       0.049
   0.33333333  0.06415003  0.00000000       0.049
   0.44444444  0.00000000  0.00000000       0.049
   0.55555556 -0.06415003  0.00000000       0.049
   0.11111111  0.19245009  0.00000000       0.025
   0.33333333  0.19245009  0.00000000       0.049
   0.44444444  0.12830006  0.00000000       0.049
   0.55555556  0.06415003  0.00000000       0.049
   0.66666667  0.00000000  0.00000000       0.025
   0.11111111  0.32075015  0.00000000       0.049
   0.44444444  0.25660012  0.00000000       0.049
   0.55555556  0.19245009  0.00000000       0.049
   0.66666667  0.12830006  0.00000000       0.049
   0.11111111  0.44905021  0.00000000       0.049
   0.22222222  0.38490018  0.00000000       0.025
 
 k-points in reciprocal lattice and weights: mos2 mono                               
   0.00000000  0.00000000  0.00000000       0.012
   0.11111111 -0.00000000  0.00000000       0.025
   0.22222222  0.00000000  0.00000000       0.025
   0.33333333  0.00000000  0.00000000       0.025
   0.44444444  0.00000000  0.00000000       0.025
  -0.00000000  0.11111111  0.00000000       0.049
   0.11111111  0.11111111  0.00000000       0.049
   0.22222222  0.11111111  0.00000000       0.049
   0.33333333  0.11111111  0.00000000       0.049
   0.44444444  0.11111111  0.00000000       0.025
   0.00000000  0.22222222  0.00000000       0.049
   0.11111111  0.22222222  0.00000000       0.049
   0.22222222  0.22222222  0.00000000       0.049
   0.33333333  0.22222222  0.00000000       0.049
  -0.11111111  0.22222222  0.00000000       0.025
   0.00000000  0.33333333  0.00000000       0.049
   0.11111111  0.33333333  0.00000000       0.049
   0.22222222  0.33333333  0.00000000       0.049
   0.33333333  0.33333333  0.00000000       0.025
  -0.22222222  0.33333333  0.00000000       0.049
   0.00000000  0.44444444  0.00000000       0.049
   0.11111111  0.44444444  0.00000000       0.049
   0.22222222  0.44444444  0.00000000       0.049
  -0.33333333  0.44444444  0.00000000       0.049
  -0.22222222  0.44444444  0.00000000       0.025
 
 position of ions in fractional coordinates (direct lattice) 
   0.00000000  0.00000000  0.03270000
   0.66666660  0.33333330  0.00007233
   0.66666660  0.33333330  0.06532767
 
 position of ions in cartesian coordinates  (Angst):
   0.00000000  0.00000000  1.56469500
   1.59499984 -0.92087359  0.00346084
   1.59499984 -0.92087359  3.12592916
 


--------------------------------------------------------------------------------------------------------


 k-point  1 :   0.0000 0.0000 0.0000  plane waves:    7609
 k-point  2 :   0.1111-0.0000 0.0000  plane waves:    7619
 k-point  3 :   0.2222 0.0000 0.0000  plane waves:    7629
 k-point  4 :   0.3333 0.0000 0.0000  plane waves:    7695
 k-point  5 :   0.4444 0.0000 0.0000  plane waves:    7715
 k-point  6 :  -0.0000 0.1111 0.0000  plane waves:    7619
 k-point  7 :   0.1111 0.1111 0.0000  plane waves:    7643
 k-point  8 :   0.2222 0.1111 0.0000  plane waves:    7668
 k-point  9 :   0.3333 0.1111 0.0000  plane waves:    7675
 k-point 10 :   0.4444 0.1111 0.0000  plane waves:    7670
 k-point 11 :   0.0000 0.2222 0.0000  plane waves:    7629
 k-point 12 :   0.1111 0.2222 0.0000  plane waves:    7668
 k-point 13 :   0.2222 0.2222 0.0000  plane waves:    7641
 k-point 14 :   0.3333 0.2222 0.0000  plane waves:    7640
 k-point 15 :  -0.1111 0.2222 0.0000  plane waves:    7643
 k-point 16 :   0.0000 0.3333 0.0000  plane waves:    7695
 k-point 17 :   0.1111 0.3333 0.0000  plane waves:    7675
 k-point 18 :   0.2222 0.3333 0.0000  plane waves:    7640
 k-point 19 :   0.3333 0.3333 0.0000  plane waves:    7575
 k-point 20 :  -0.2222 0.3333 0.0000  plane waves:    7668
 k-point 21 :   0.0000 0.4444 0.0000  plane waves:    7715
 k-point 22 :   0.1111 0.4444 0.0000  plane waves:    7670
 k-point 23 :   0.2222 0.4444 0.0000  plane waves:    7640
 k-point 24 :  -0.3333 0.4444 0.0000  plane waves:    7675
 k-point 25 :  -0.2222 0.4444 0.0000  plane waves:    7641

 maximum and minimum number of plane-waves per node :      7715     7575

 maximum number of plane-waves:      7715
 maximum index in each direction: 
   IXMAX=    5   IYMAX=    5   IZMAX=   78
   IXMIN=   -5   IYMIN=   -5   IZMIN=  -78


 serial   3D FFT for wavefunctions
 parallel 3D FFT for charge:
    minimum data exchange during FFTs selected (reduces bandwidth)


 total amount of memory used by VASP MPI-rank0   200213. kBytes
=======================================================================

   base      :      30000. kBytes
   nonl-proj :      55925. kBytes
   fftplans  :      17258. kBytes
   grid      :      34968. kBytes
   one-center:         46. kBytes
   wavefun   :      62016. kBytes
 
     INWAV:  cpu time    0.0000: real time    0.0002
 Broyden mixing: mesh for mixing (old mesh)
   NGX = 11   NGY = 11   NGZ =157
  (NGX  = 48   NGY  = 48   NGZ  =640)
  gives a total of  18997 points

 initial charge density was supplied:
 charge density of overlapping atoms calculated
 number of electron      18.0000000 magnetization 
 keeping initial charge density in first step


--------------------------------------------------------------------------------------------------------


 Maximum index for augmentation-charges         9021 (set IRDMAX)


--------------------------------------------------------------------------------------------------------


 First call to EWALD:  gamma=   0.236
 Maximum number of real-space cells 7x 7x 1
 Maximum number of reciprocal cells 1x 1x15

    FEWALD:  cpu time    0.0020: real time    0.0020


--------------------------------------- Iteration      1(   1)  ---------------------------------------


    POTLOK:  cpu time    0.3183: real time    0.3980
    SETDIJ:  cpu time    0.0021: real time    0.0021
     EDDAV:  cpu time    2.1269: real time    2.1887
       DOS:  cpu time    0.0008: real time    0.0008
    --------------------------------------------
      LOOP:  cpu time    2.4481: real time    2.5897

 eigenvalue-minimisations  :  3036
 total energy-change (2. order) : 0.9063759E+02  (-0.3834244E+03)
 number of electron      18.0000000 magnetization 
 augmentation part       18.0000000 magnetization 

 Free energy of the ion-electron system (eV)
  ---------------------------------------------------
  alpha Z        PSCENC =         7.03105501
  Ewald energy   TEWEN  =     10016.43403388
  -Hartree energ DENC   =    -10670.92993586
  -exchange      EXHF   =         0.00000000
  -V(xc)+E(xc)   XCENC  =       -36.29606392
  PAW double counting   =       700.55132206     -623.00449337
  entropy T*S    EENTRO =        -0.00250321
  eigenvalues    EBANDS =       -74.29776946
  atomic energy  EATOM  =       771.15194512
  Solvation  Ediel_sol  =         0.00000000
  ---------------------------------------------------
  free energy    TOTEN  =        90.63759026 eV

  energy without entropy =       90.64009347  energy(sigma->0) =       90.63884187


--------------------------------------------------------------------------------------------------------




--------------------------------------- Iteration      1(   2)  ---------------------------------------


     EDDAV:  cpu time    2.5984: real time    2.5997
       DOS:  cpu time    0.0007: real time    0.0007
    --------------------------------------------
      LOOP:  cpu time    2.5991: real time    2.6003

 eigenvalue-minimisations  :  3951
 total energy-change (2. order) :-0.1049800E+03  (-0.9576337E+02)
 number of electron      18.0000000 magnetization 
 augmentation part       18.0000000 magnetization 

 Free energy of the ion-electron system (eV)
  ---------------------------------------------------
  alpha Z        PSCENC =         7.03105501
  Ewald energy   TEWEN  =     10016.43403388
  -Hartree energ DENC   =    -10670.92993586
  -exchange      EXHF   =         0.00000000
  -V(xc)+E(xc)   XCENC  =       -36.29606392
  PAW double counting   =       700.55132206     -623.00449337
  entropy T*S    EENTRO =        -0.00000000
  eigenvalues    EBANDS =      -179.28023564
  atomic energy  EATOM  =       771.15194512
  Solvation  Ediel_sol  =         0.00000000
  ---------------------------------------------------
  free energy    TOTEN  =       -14.34237271 eV

  energy without entropy =      -14.34237271  energy(sigma->0) =      -14.34237271


--------------------------------------------------------------------------------------------------------




--------------------------------------- Iteration      1(   3)  ---------------------------------------


     EDDAV:  cpu time    2.5394: real time    2.5408
       DOS:  cpu time    0.0004: real time    0.0004
    --------------------------------------------
      LOOP:  cpu time    2.5398: real time    2.5412

 eigenvalue-minimisations  :  3906
 total energy-change (2. order) :-0.8907384E+01  (-0.8707714E+01)
 number of electron      18.0000000 magnetization 
 augmentation part       18.0000000 magnetization 

 Free energy of the ion-electron system (eV)
  ---------------------------------------------------
  alpha Z        PSCENC =         7.03105501
  Ewald energy   TEWEN  =     10016.43403388
  -Hartree energ DENC   =    -10670.92993586
  -exchange      EXHF   =         0.00000000
  -V(xc)+E(xc)   XCENC  =       -36.29606392
  PAW double counting   =       700.55132206     -623.00449337
  entropy T*S    EENTRO =        -0.00000000
  eigenvalues    EBANDS =      -188.18761931
  atomic energy  EATOM  =       771.15194512
  Solvation  Ediel_sol  =         0.00000000
  ---------------------------------------------------
  free energy    TOTEN  =       -23.24975638 eV

  energy without entropy =      -23.24975638  energy(sigma->0) =      -23.24975638


--------------------------------------------------------------------------------------------------------




--------------------------------------- Iteration      1(   4)  ---------------------------------------


     EDDAV:  cpu time    2.4042: real time    2.4058
       DOS:  cpu time    0.0005: real time    0.0005
    --------------------------------------------
      LOOP:  cpu time    2.4047: real time    2.4063

 eigenvalue-minimisations  :  3669
 total energy-change (2. order) :-0.1471795E+00  (-0.1471011E+00)
 number of electron      18.0000000 magnetization 
 augmentation part       18.0000000 magnetization 

 Free energy of the ion-electron system (eV)
  ---------------------------------------------------
  alpha Z        PSCENC =         7.03105501
  Ewald energy   TEWEN  =     10016.43403388
  -Hartree energ DENC   =    -10670.92993586
  -exchange      EXHF   =         0.00000000
  -V(xc)+E(xc)   XCENC  =       -36.29606392
  PAW double counting   =       700.55132206     -623.00449337
  entropy T*S    EENTRO =        -0.00000000
  eigenvalues    EBANDS =      -188.33479880
  atomic energy  EATOM  =       771.15194512
  Solvation  Ediel_sol  =         0.00000000
  ---------------------------------------------------
  free energy    TOTEN  =       -23.39693587 eV

  energy without entropy =      -23.39693587  energy(sigma->0) =      -23.39693587


--------------------------------------------------------------------------------------------------------




--------------------------------------- Iteration      1(   5)  ---------------------------------------


     EDDAV:  cpu time    2.4638: real time    2.4640
       DOS:  cpu time    0.0009: real time    0.0009
    CHARGE:  cpu time    0.0963: real time    0.0963
    MIXING:  cpu time    0.0155: real time    0.0155
    --------------------------------------------
      LOOP:  cpu time    2.5765: real time    2.5767

 eigenvalue-minimisations  :  3855
 total energy-change (2. order) :-0.3686815E-02  (-0.3686614E-02)
 number of electron      18.0000002 magnetization 
 augmentation part       -0.9442367 magnetization 

 Broyden mixing:
  rms(total) = 0.24527E+01    rms(broyden)= 0.24527E+01
  rms(prec ) = 0.24579E+01
  weight for this iteration     100.00

 Free energy of the ion-electron system (eV)
  ---------------------------------------------------
  alpha Z        PSCENC =         7.03105501
  Ewald energy   TEWEN  =     10016.43403388
  -Hartree energ DENC   =    -10670.92993586
  -exchange      EXHF   =         0.00000000
  -V(xc)+E(xc)   XCENC  =       -36.29606392
  PAW double counting   =       700.55132206     -623.00449337
  entropy T*S    EENTRO =        -0.00000000
  eigenvalues    EBANDS =      -188.33848561
  atomic energy  EATOM  =       771.15194512
  Solvation  Ediel_sol  =         0.00000000
  ---------------------------------------------------
  free energy    TOTEN  =       -23.40062268 eV

  energy without entropy =      -23.40062268  energy(sigma->0) =      -23.40062268


--------------------------------------------------------------------------------------------------------




--------------------------------------- Iteration      1(   6)  ---------------------------------------


    POTLOK:  cpu time    0.4038: real time    0.4048
    SETDIJ:  cpu time    0.0029: real time    0.0029
     EDDAV:  cpu time    2.4967: real time    2.4970
       DOS:  cpu time    0.0020: real time    0.0020
    CHARGE:  cpu time    0.0928: real time    0.0928
    MIXING:  cpu time    0.0208: real time    0.0208
    --------------------------------------------
      LOOP:  cpu time    3.0191: real time    3.0203

 eigenvalue-minimisations  :  3903
 total energy-change (2. order) : 0.1180396E+01  (-0.1028197E+00)
 number of electron      18.0000003 magnetization 
 augmentation part       -0.3706456 magnetization 

 Broyden mixing:
  rms(total) = 0.86074E+00    rms(broyden)= 0.86074E+00
  rms(prec ) = 0.86638E+00
  weight for this iteration     100.00

 eigenvalues of (default mixing * dielectric matrix)
  average eigenvalue GAMMA=   1.1633
  1.1633

 Free energy of the ion-electron system (eV)
  ---------------------------------------------------
  alpha Z        PSCENC =         7.03105501
  Ewald energy   TEWEN  =     10016.43403388
  -Hartree energ DENC   =    -10669.14593856
  -exchange      EXHF   =         0.00000000
  -V(xc)+E(xc)   XCENC  =       -35.41026245
  PAW double counting   =       998.91319369     -922.26057118
  entropy T*S    EENTRO =        -0.00000000
  eigenvalues    EBANDS =      -188.93368259
  atomic energy  EATOM  =       771.15194512
  Solvation  Ediel_sol  =         0.00000000
  ---------------------------------------------------
  free energy    TOTEN  =       -22.22022708 eV

  energy without entropy =      -22.22022708  energy(sigma->0) =      -22.22022708


--------------------------------------------------------------------------------------------------------




--------------------------------------- Iteration      1(   7)  ---------------------------------------


    POTLOK:  cpu time    0.3903: real time    0.3907
    SETDIJ:  cpu time    0.0109: real time    0.0109
     EDDAV:  cpu time    2.2495: real time    2.2495
       DOS:  cpu time    0.0019: real time    0.0019
    CHARGE:  cpu time    0.0947: real time    0.0947
    MIXING:  cpu time    0.0164: real time    0.0163
    --------------------------------------------
      LOOP:  cpu time    2.7637: real time    2.7641

 eigenvalue-minimisations  :  3372
 total energy-change (2. order) : 0.1462343E+00  (-0.3879424E-01)
 number of electron      18.0000003 magnetization 
 augmentation part       -0.7379083 magnetization 

 Broyden mixing:
  rms(total) = 0.75093E+00    rms(broyden)= 0.75093E+00
  rms(prec ) = 0.75511E+00
  weight for this iteration     100.00

 eigenvalues of (default mixing * dielectric matrix)
  average eigenvalue GAMMA=   1.3784
  2.1156  0.6411

 Free energy of the ion-electron system (eV)
  ---------------------------------------------------
  alpha Z        PSCENC =         7.03105501
  Ewald energy   TEWEN  =     10016.43403388
  -Hartree energ DENC   =    -10678.71913572
  -exchange      EXHF   =         0.00000000
  -V(xc)+E(xc)   XCENC  =       -35.66406549
  PAW double counting   =      1259.73147856    -1183.43750033
  entropy T*S    EENTRO =        -0.00000000
  eigenvalues    EBANDS =      -178.60180377
  atomic energy  EATOM  =       771.15194512
  Solvation  Ediel_sol  =         0.00000000
  ---------------------------------------------------
  free energy    TOTEN  =       -22.07399275 eV

  energy without entropy =      -22.07399275  energy(sigma->0) =      -22.07399275


--------------------------------------------------------------------------------------------------------




--------------------------------------- Iteration      1(   8)  ---------------------------------------


    POTLOK:  cpu time    0.3976: real time    0.3979
    SETDIJ:  cpu time    0.0021: real time    0.0021
     EDDAV:  cpu time    2.3730: real time    2.3730
       DOS:  cpu time    0.0009: real time    0.0009
    CHARGE:  cpu time    0.0870: real time    0.0879
    MIXING:  cpu time    0.0290: real time    0.0290
    --------------------------------------------
      LOOP:  cpu time    2.8896: real time    2.8908

 eigenvalue-minimisations  :  3669
 total energy-change (2. order) : 0.2755038E+00  (-0.1310347E-01)
 number of electron      18.0000003 magnetization 
 augmentation part       -0.5257778 magnetization 

 Broyden mixing:
  rms(total) = 0.87755E-01    rms(broyden)= 0.87753E-01
  rms(prec ) = 0.88671E-01
  weight for this iteration     100.00

 eigenvalues of (default mixing * dielectric matrix)
  average eigenvalue GAMMA=   1.4050
  2.3154  1.2924  0.6071

 Free energy of the ion-electron system (eV)
  ---------------------------------------------------
  alpha Z        PSCENC =         7.03105501
  Ewald energy   TEWEN  =     10016.43403388
  -Hartree energ DENC   =    -10678.92245497
  -exchange      EXHF   =         0.00000000
  -V(xc)+E(xc)   XCENC  =       -35.25249715
  PAW double counting   =      1523.32093274    -1447.45668934
  entropy T*S    EENTRO =        -0.00000000
  eigenvalues    EBANDS =      -178.10481419
  atomic energy  EATOM  =       771.15194512
  Solvation  Ediel_sol  =         0.00000000
  ---------------------------------------------------
  free energy    TOTEN  =       -21.79848890 eV

  energy without entropy =      -21.79848890  energy(sigma->0) =      -21.79848890


--------------------------------------------------------------------------------------------------------




--------------------------------------- Iteration      1(   9)  ---------------------------------------


    POTLOK:  cpu time    0.3853: real time    0.3856
    SETDIJ:  cpu time    0.0324: real time    0.0324
     EDDAV:  cpu time    2.4034: real time    2.4034
       DOS:  cpu time    0.0005: real time    0.0005
    CHARGE:  cpu time    0.0955: real time    0.0961
    MIXING:  cpu time    0.0153: real time    0.0153
    --------------------------------------------
      LOOP:  cpu time    2.9324: real time    2.9333

 eigenvalue-minimisations  :  3678
 total energy-change (2. order) : 0.3424785E-02  (-0.5721984E-02)
 number of electron      18.0000003 magnetization 
 augmentation part       -0.5455232 magnetization 

 Broyden mixing:
  rms(total) = 0.32723E-01    rms(broyden)= 0.32722E-01
  rms(prec ) = 0.33010E-01
  weight for this iteration     100.00

 eigenvalues of (default mixing * dielectric matrix)
  average eigenvalue GAMMA=   1.3085
  2.5084  1.4646  0.6709  0.5900

 Free energy of the ion-electron system (eV)
  ---------------------------------------------------
  alpha Z        PSCENC =         7.03105501
  Ewald energy   TEWEN  =     10016.43403388
  -Hartree energ DENC   =    -10680.51857250
  -exchange      EXHF   =         0.00000000
  -V(xc)+E(xc)   XCENC  =       -35.23435900
  PAW double counting   =      1571.25862990    -1495.45646184
  entropy T*S    EENTRO =        -0.00000000
  eigenvalues    EBANDS =      -176.46133469
  atomic energy  EATOM  =       771.15194512
  Solvation  Ediel_sol  =         0.00000000
  ---------------------------------------------------
  free energy    TOTEN  =       -21.79506411 eV

  energy without entropy =      -21.79506411  energy(sigma->0) =      -21.79506411


--------------------------------------------------------------------------------------------------------




--------------------------------------- Iteration      1(  10)  ---------------------------------------


    POTLOK:  cpu time    0.3917: real time    0.3926
    SETDIJ:  cpu time    0.0025: real time    0.0025
     EDDAV:  cpu time    2.5054: real time    2.5055
       DOS:  cpu time    0.0012: real time    0.0012
    CHARGE:  cpu time    0.0945: real time    0.0945
    MIXING:  cpu time    0.0170: real time    0.0170
    --------------------------------------------
      LOOP:  cpu time    3.0123: real time    3.0132

 eigenvalue-minimisations  :  3888
 total energy-change (2. order) : 0.7397067E-03  (-0.1298709E-03)
 number of electron      18.0000003 magnetization 
 augmentation part       -0.5528973 magnetization 

 Broyden mixing:
  rms(total) = 0.24852E-01    rms(broyden)= 0.24852E-01
  rms(prec ) = 0.25043E-01
  weight for this iteration     100.00

 eigenvalues of (default mixing * dielectric matrix)
  average eigenvalue GAMMA=   1.3435
  1.9218  1.9218  0.6143  1.0212  1.2383

 Free energy of the ion-electron system (eV)
  ---------------------------------------------------
  alpha Z        PSCENC =         7.03105501
  Ewald energy   TEWEN  =     10016.43403388
  -Hartree energ DENC   =    -10681.32135789
  -exchange      EXHF   =         0.00000000
  -V(xc)+E(xc)   XCENC  =       -35.22356203
  PAW double counting   =      1594.23059200    -1518.44448971
  entropy T*S    EENTRO =        -0.00000000
  eigenvalues    EBANDS =      -175.65254080
  atomic energy  EATOM  =       771.15194512
  Solvation  Ediel_sol  =         0.00000000
  ---------------------------------------------------
  free energy    TOTEN  =       -21.79432441 eV

  energy without entropy =      -21.79432441  energy(sigma->0) =      -21.79432441


--------------------------------------------------------------------------------------------------------




--------------------------------------- Iteration      1(  11)  ---------------------------------------


    POTLOK:  cpu time    0.3999: real time    0.4002
    SETDIJ:  cpu time    0.0021: real time    0.0021
     EDDAV:  cpu time    2.3991: real time    2.3991
       DOS:  cpu time    0.0024: real time    0.0024
    CHARGE:  cpu time    0.1086: real time    0.1086
    MIXING:  cpu time    0.0172: real time    0.0172
    --------------------------------------------
      LOOP:  cpu time    2.9292: real time    2.9295

 eigenvalue-minimisations  :  3552
 total energy-change (2. order) : 0.2890467E-03  (-0.1875719E-04)
 number of electron      18.0000003 magnetization 
 augmentation part       -0.5521888 magnetization 

 Broyden mixing:
  rms(total) = 0.23451E-01    rms(broyden)= 0.23451E-01
  rms(prec ) = 0.23583E-01
  weight for this iteration     100.00

 eigenvalues of (default mixing * dielectric matrix)
  average eigenvalue GAMMA=   1.5214
  2.8318  2.3350  1.5072  1.0353  0.6121  0.8067

 Free energy of the ion-electron system (eV)
  ---------------------------------------------------
  alpha Z        PSCENC =         7.03105501
  Ewald energy   TEWEN  =     10016.43403388
  -Hartree energ DENC   =    -10681.99782099
  -exchange      EXHF   =         0.00000000
  -V(xc)+E(xc)   XCENC  =       -35.22065651
  PAW double counting   =      1580.83954764    -1505.03022010
  entropy T*S    EENTRO =        -0.00000000
  eigenvalues    EBANDS =      -175.00191941
  atomic energy  EATOM  =       771.15194512
  Solvation  Ediel_sol  =         0.00000000
  ---------------------------------------------------
  free energy    TOTEN  =       -21.79403536 eV

  energy without entropy =      -21.79403536  energy(sigma->0) =      -21.79403536


--------------------------------------------------------------------------------------------------------




--------------------------------------- Iteration      1(  12)  ---------------------------------------


    POTLOK:  cpu time    0.3998: real time    0.4002
    SETDIJ:  cpu time    0.0035: real time    0.0035
     EDDAV:  cpu time    2.5526: real time    2.5526
       DOS:  cpu time    0.0004: real time    0.0004
    CHARGE:  cpu time    0.1107: real time    0.1107
    MIXING:  cpu time    0.0209: real time    0.0209
    --------------------------------------------
      LOOP:  cpu time    3.0879: real time    3.0882

 eigenvalue-minimisations  :  3588
 total energy-change (2. order) : 0.4641742E-03  (-0.2289264E-04)
 number of electron      18.0000003 magnetization 
 augmentation part       -0.5495890 magnetization 

 Broyden mixing:
  rms(total) = 0.24948E-02    rms(broyden)= 0.24948E-02
  rms(prec ) = 0.28619E-02
  weight for this iteration     100.00

 eigenvalues of (default mixing * dielectric matrix)
  average eigenvalue GAMMA=   1.4568
  2.4668  1.9852  1.9852  1.4761  0.6120  0.8361  0.8361

 Free energy of the ion-electron system (eV)
  ---------------------------------------------------
  alpha Z        PSCENC =         7.03105501
  Ewald energy   TEWEN  =     10016.43403388
  -Hartree energ DENC   =    -10683.36202827
  -exchange      EXHF   =         0.00000000
  -V(xc)+E(xc)   XCENC  =       -35.19544847
  PAW double counting   =      1596.40565795    -1520.60863075
  entropy T*S    EENTRO =        -0.00000000
  eigenvalues    EBANDS =      -173.65015566
  atomic energy  EATOM  =       771.15194512
  Solvation  Ediel_sol  =         0.00000000
  ---------------------------------------------------
  free energy    TOTEN  =       -21.79357119 eV

  energy without entropy =      -21.79357119  energy(sigma->0) =      -21.79357119


--------------------------------------------------------------------------------------------------------




--------------------------------------- Iteration      1(  13)  ---------------------------------------


    POTLOK:  cpu time    0.3775: real time    0.3775
    SETDIJ:  cpu time    0.0342: real time    0.0342
     EDDAV:  cpu time    2.4414: real time    2.4428
       DOS:  cpu time    0.0004: real time    0.0004
    CHARGE:  cpu time    0.1130: real time    0.1130
    MIXING:  cpu time    0.0162: real time    0.0162
    --------------------------------------------
      LOOP:  cpu time    2.9827: real time    2.9841

 eigenvalue-minimisations  :  3525
 total energy-change (2. order) :-0.6439787E-04  (-0.1416183E-05)
 number of electron      18.0000003 magnetization 
 augmentation part       -0.5501591 magnetization 

 Broyden mixing:
  rms(total) = 0.30800E-02    rms(broyden)= 0.30800E-02
  rms(prec ) = 0.32834E-02
  weight for this iteration     100.00

 eigenvalues of (default mixing * dielectric matrix)
  average eigenvalue GAMMA=   1.5524
  3.0898  2.5386  1.9758  1.5242  0.6118  0.7944  0.9423  0.9423

 Free energy of the ion-electron system (eV)
  ---------------------------------------------------
  alpha Z        PSCENC =         7.03105501
  Ewald energy   TEWEN  =     10016.43403388
  -Hartree energ DENC   =    -10683.65965488
  -exchange      EXHF   =         0.00000000
  -V(xc)+E(xc)   XCENC  =       -35.19530501
  PAW double counting   =      1595.56204670    -1519.76392063
  entropy T*S    EENTRO =        -0.00000000
  eigenvalues    EBANDS =      -173.35383578
  atomic energy  EATOM  =       771.15194512
  Solvation  Ediel_sol  =         0.00000000
  ---------------------------------------------------
  free energy    TOTEN  =       -21.79363559 eV

  energy without entropy =      -21.79363559  energy(sigma->0) =      -21.79363559


--------------------------------------------------------------------------------------------------------




--------------------------------------- Iteration      1(  14)  ---------------------------------------


    POTLOK:  cpu time    0.3872: real time    0.3874
    SETDIJ:  cpu time    0.0111: real time    0.0111
     EDDAV:  cpu time    2.4365: real time    2.4366
       DOS:  cpu time    0.0022: real time    0.0022
    CHARGE:  cpu time    0.1019: real time    0.1019
    MIXING:  cpu time    0.0170: real time    0.0170
    --------------------------------------------
      LOOP:  cpu time    2.9559: real time    2.9562

 eigenvalue-minimisations  :  3411
 total energy-change (2. order) :-0.7856226E-04  (-0.1534288E-05)
 number of electron      18.0000003 magnetization 
 augmentation part       -0.5499998 magnetization 

 Broyden mixing:
  rms(total) = 0.89481E-03    rms(broyden)= 0.89479E-03
  rms(prec ) = 0.10690E-02
  weight for this iteration     100.00

 eigenvalues of (default mixing * dielectric matrix)
  average eigenvalue GAMMA=   1.6880
  4.1579  2.7092  2.0432  1.7136  1.3121  0.6118  0.8025  0.9207  0.9207

 Free energy of the ion-electron system (eV)
  ---------------------------------------------------
  alpha Z        PSCENC =         7.03105501
  Ewald energy   TEWEN  =     10016.43403388
  -Hartree energ DENC   =    -10684.52138871
  -exchange      EXHF   =         0.00000000
  -V(xc)+E(xc)   XCENC  =       -35.18878162
  PAW double counting   =      1595.30436047    -1519.50405051
  entropy T*S    EENTRO =        -0.00000000
  eigenvalues    EBANDS =      -172.50088779
  atomic energy  EATOM  =       771.15194512
  Solvation  Ediel_sol  =         0.00000000
  ---------------------------------------------------
  free energy    TOTEN  =       -21.79371415 eV

  energy without entropy =      -21.79371415  energy(sigma->0) =      -21.79371415


--------------------------------------------------------------------------------------------------------




--------------------------------------- Iteration      1(  15)  ---------------------------------------


    POTLOK:  cpu time    0.3901: real time    0.3904
    SETDIJ:  cpu time    0.0094: real time    0.0094
     EDDAV:  cpu time    2.3228: real time    2.3244
       DOS:  cpu time    0.0023: real time    0.0023
    CHARGE:  cpu time    0.1017: real time    0.1017
    MIXING:  cpu time    0.0173: real time    0.0173
    --------------------------------------------
      LOOP:  cpu time    2.8436: real time    2.8455

 eigenvalue-minimisations  :  3477
 total energy-change (2. order) :-0.1203484E-03  (-0.4919834E-06)
 number of electron      18.0000003 magnetization 
 augmentation part       -0.5497633 magnetization 

 Broyden mixing:
  rms(total) = 0.10061E-02    rms(broyden)= 0.10061E-02
  rms(prec ) = 0.10708E-02
  weight for this iteration     100.00

 eigenvalues of (default mixing * dielectric matrix)
  average eigenvalue GAMMA=   1.7951
  5.5616  2.5268  2.2629  1.5588  1.5588  0.6119  0.8270  0.9668  1.0384  1.0384

 Free energy of the ion-electron system (eV)
  ---------------------------------------------------
  alpha Z        PSCENC =         7.03105501
  Ewald energy   TEWEN  =     10016.43403388
  -Hartree energ DENC   =    -10684.89615276
  -exchange      EXHF   =         0.00000000
  -V(xc)+E(xc)   XCENC  =       -35.18678781
  PAW double counting   =      1595.08032682    -1519.27985759
  entropy T*S    EENTRO =        -0.00000000
  eigenvalues    EBANDS =      -172.12839717
  atomic energy  EATOM  =       771.15194512
  Solvation  Ediel_sol  =         0.00000000
  ---------------------------------------------------
  free energy    TOTEN  =       -21.79383450 eV

  energy without entropy =      -21.79383450  energy(sigma->0) =      -21.79383450


--------------------------------------------------------------------------------------------------------




--------------------------------------- Iteration      1(  16)  ---------------------------------------


    POTLOK:  cpu time    0.3839: real time    0.3848
    SETDIJ:  cpu time    0.0452: real time    0.0452
     EDDAV:  cpu time    2.3266: real time    2.3380
       DOS:  cpu time    0.0021: real time    0.0021
    CHARGE:  cpu time    0.1037: real time    0.1037
    MIXING:  cpu time    0.0243: real time    0.0243
    --------------------------------------------
      LOOP:  cpu time    2.8858: real time    2.8981

 eigenvalue-minimisations  :  3450
 total energy-change (2. order) :-0.1106222E-03  (-0.2200671E-06)
 number of electron      18.0000003 magnetization 
 augmentation part       -0.5499151 magnetization 

 Broyden mixing:
  rms(total) = 0.54958E-03    rms(broyden)= 0.54958E-03
  rms(prec ) = 0.58134E-03
  weight for this iteration     100.00

 eigenvalues of (default mixing * dielectric matrix)
  average eigenvalue GAMMA=   1.9468
  6.5370  3.1620  2.5592  1.8034  1.8034  1.3486  0.6119  0.8136  0.9273  0.9242
  0.9242

 Free energy of the ion-electron system (eV)
  ---------------------------------------------------
  alpha Z        PSCENC =         7.03105501
  Ewald energy   TEWEN  =     10016.43403388
  -Hartree energ DENC   =    -10685.22051753
  -exchange      EXHF   =         0.00000000
  -V(xc)+E(xc)   XCENC  =       -35.18547719
  PAW double counting   =      1595.23151648    -1519.43135449
  entropy T*S    EENTRO =        -0.00000000
  eigenvalues    EBANDS =      -171.80514639
  atomic energy  EATOM  =       771.15194512
  Solvation  Ediel_sol  =         0.00000000
  ---------------------------------------------------
  free energy    TOTEN  =       -21.79394512 eV

  energy without entropy =      -21.79394512  energy(sigma->0) =      -21.79394512


--------------------------------------------------------------------------------------------------------




--------------------------------------- Iteration      1(  17)  ---------------------------------------


    POTLOK:  cpu time    0.3973: real time    0.3975
    SETDIJ:  cpu time    0.0208: real time    0.0208
     EDDAV:  cpu time    2.2920: real time    2.3216
       DOS:  cpu time    0.0020: real time    0.0020
    CHARGE:  cpu time    0.0947: real time    0.0947
    MIXING:  cpu time    0.0185: real time    0.0185
    --------------------------------------------
      LOOP:  cpu time    2.8253: real time    2.8551

 eigenvalue-minimisations  :  3390
 total energy-change (2. order) :-0.8242671E-04  (-0.7122065E-07)
 number of electron      18.0000003 magnetization 
 augmentation part       -0.5498658 magnetization 

 Broyden mixing:
  rms(total) = 0.43942E-03    rms(broyden)= 0.43942E-03
  rms(prec ) = 0.44891E-03
  weight for this iteration     100.00

 eigenvalues of (default mixing * dielectric matrix)
  average eigenvalue GAMMA=   2.0147
  6.9045  3.8208  2.3320  2.2917  1.7084  1.7084  0.6119  1.0122  1.0122  0.9850
  0.9850  0.8040

 Free energy of the ion-electron system (eV)
  ---------------------------------------------------
  alpha Z        PSCENC =         7.03105501
  Ewald energy   TEWEN  =     10016.43403388
  -Hartree energ DENC   =    -10685.36493588
  -exchange      EXHF   =         0.00000000
  -V(xc)+E(xc)   XCENC  =       -35.18550744
  PAW double counting   =      1595.08318595    -1519.28337666
  entropy T*S    EENTRO =        -0.00000000
  eigenvalues    EBANDS =      -171.66042752
  atomic energy  EATOM  =       771.15194512
  Solvation  Ediel_sol  =         0.00000000
  ---------------------------------------------------
  free energy    TOTEN  =       -21.79402754 eV

  energy without entropy =      -21.79402754  energy(sigma->0) =      -21.79402754


--------------------------------------------------------------------------------------------------------




--------------------------------------- Iteration      1(  18)  ---------------------------------------


    POTLOK:  cpu time    0.4082: real time    0.4085
    SETDIJ:  cpu time    0.0031: real time    0.0031
     EDDAV:  cpu time    2.2802: real time    2.3023
       DOS:  cpu time    0.0020: real time    0.0020
    CHARGE:  cpu time    0.0950: real time    0.0950
    MIXING:  cpu time    0.0176: real time    0.0176
    --------------------------------------------
      LOOP:  cpu time    2.8062: real time    2.8285

 eigenvalue-minimisations  :  3489
 total energy-change (2. order) :-0.3860898E-04  (-0.1600825E-07)
 number of electron      18.0000003 magnetization 
 augmentation part       -0.5498387 magnetization 

 Broyden mixing:
  rms(total) = 0.27007E-03    rms(broyden)= 0.27007E-03
  rms(prec ) = 0.27454E-03
  weight for this iteration     100.00

 eigenvalues of (default mixing * dielectric matrix)
  average eigenvalue GAMMA=   2.1556
  7.6323  4.6187  2.9522  2.4805  2.0506  1.6621  1.3998  0.6119  0.9526  0.9526
  0.8110  0.9490  0.9490

 Free energy of the ion-electron system (eV)
  ---------------------------------------------------
  alpha Z        PSCENC =         7.03105501
  Ewald energy   TEWEN  =     10016.43403388
  -Hartree energ DENC   =    -10685.41481145
  -exchange      EXHF   =         0.00000000
  -V(xc)+E(xc)   XCENC  =       -35.18558012
  PAW double counting   =      1594.85869726    -1519.05869100
  entropy T*S    EENTRO =        -0.00000000
  eigenvalues    EBANDS =      -171.61071485
  atomic energy  EATOM  =       771.15194512
  Solvation  Ediel_sol  =         0.00000000
  ---------------------------------------------------
  free energy    TOTEN  =       -21.79406615 eV

  energy without entropy =      -21.79406615  energy(sigma->0) =      -21.79406615


--------------------------------------------------------------------------------------------------------




--------------------------------------- Iteration      1(  19)  ---------------------------------------


    POTLOK:  cpu time    0.3991: real time    0.3995
    SETDIJ:  cpu time    0.0045: real time    0.0045
     EDDAV:  cpu time    2.3082: real time    2.3137
       DOS:  cpu time    0.0024: real time    0.0024
    CHARGE:  cpu time    0.0933: real time    0.0933
    MIXING:  cpu time    0.0195: real time    0.0195
    --------------------------------------------
      LOOP:  cpu time    2.8271: real time    2.8330

 eigenvalue-minimisations  :  3417
 total energy-change (2. order) :-0.1922901E-04  (-0.1687564E-07)
 number of electron      18.0000003 magnetization 
 augmentation part       -0.5498011 magnetization 

 Broyden mixing:
  rms(total) = 0.14066E-03    rms(broyden)= 0.14066E-03
  rms(prec ) = 0.14294E-03
  weight for this iteration     100.00

 eigenvalues of (default mixing * dielectric matrix)
  average eigenvalue GAMMA=   2.1658
  7.9905  4.8984  3.0283  2.5718  1.9098  1.9098  1.5916  0.6119  1.0791  1.0791
  0.9622  0.9622  0.8104  0.9156

 Free energy of the ion-electron system (eV)
  ---------------------------------------------------
  alpha Z        PSCENC =         7.03105501
  Ewald energy   TEWEN  =     10016.43403388
  -Hartree energ DENC   =    -10685.44561853
  -exchange      EXHF   =         0.00000000
  -V(xc)+E(xc)   XCENC  =       -35.18545583
  PAW double counting   =      1594.85817030    -1519.05807431
  entropy T*S    EENTRO =        -0.00000000
  eigenvalues    EBANDS =      -171.58014102
  atomic energy  EATOM  =       771.15194512
  Solvation  Ediel_sol  =         0.00000000
  ---------------------------------------------------
  free energy    TOTEN  =       -21.79408538 eV

  energy without entropy =      -21.79408538  energy(sigma->0) =      -21.79408538


--------------------------------------------------------------------------------------------------------




--------------------------------------- Iteration      1(  20)  ---------------------------------------


    POTLOK:  cpu time    0.3999: real time    0.3999
    SETDIJ:  cpu time    0.0075: real time    0.0075
     EDDAV:  cpu time    2.3100: real time    2.3128
       DOS:  cpu time    0.0028: real time    0.0028
    CHARGE:  cpu time    0.1000: real time    0.1000
    MIXING:  cpu time    0.0214: real time    0.0214
    --------------------------------------------
      LOOP:  cpu time    2.8416: real time    2.8444

 eigenvalue-minimisations  :  3465
 total energy-change (2. order) :-0.7019507E-05  (-0.1609163E-08)
 number of electron      18.0000003 magnetization 
 augmentation part       -0.5498209 magnetization 

 Broyden mixing:
  rms(total) = 0.11740E-03    rms(broyden)= 0.11740E-03
  rms(prec ) = 0.11830E-03
  weight for this iteration     100.00

 eigenvalues of (default mixing * dielectric matrix)
  average eigenvalue GAMMA=   2.3058
  8.1957  5.9973  3.3164  3.0354  2.5896  1.8700  1.7570  1.4956  0.6119  0.9689
  0.9689  0.8104  1.0018  1.0018  0.9662

 Free energy of the ion-electron system (eV)
  ---------------------------------------------------
  alpha Z        PSCENC =         7.03105501
  Ewald energy   TEWEN  =     10016.43403388
  -Hartree energ DENC   =    -10685.45541085
  -exchange      EXHF   =         0.00000000
  -V(xc)+E(xc)   XCENC  =       -35.18546290
  PAW double counting   =      1594.89971185    -1519.09961005
  entropy T*S    EENTRO =        -0.00000000
  eigenvalues    EBANDS =      -171.57035446
  atomic energy  EATOM  =       771.15194512
  Solvation  Ediel_sol  =         0.00000000
  ---------------------------------------------------
  free energy    TOTEN  =       -21.79409240 eV

  energy without entropy =      -21.79409240  energy(sigma->0) =      -21.79409240


--------------------------------------------------------------------------------------------------------




--------------------------------------- Iteration      1(  21)  ---------------------------------------


    POTLOK:  cpu time    0.3935: real time    0.3935
    SETDIJ:  cpu time    0.0129: real time    0.0129
     EDDAV:  cpu time    2.2680: real time    2.2849
       DOS:  cpu time    0.0030: real time    0.0030
    CHARGE:  cpu time    0.1011: real time    0.1011
    MIXING:  cpu time    0.0188: real time    0.0188
    --------------------------------------------
      LOOP:  cpu time    2.7974: real time    2.8143

 eigenvalue-minimisations  :  3303
 total energy-change (2. order) :-0.6160395E-05  (-0.2400126E-08)
 number of electron      18.0000003 magnetization 
 augmentation part       -0.5498362 magnetization 

 Broyden mixing:
  rms(total) = 0.41286E-04    rms(broyden)= 0.41286E-04
  rms(prec ) = 0.41877E-04
  weight for this iteration     100.00

 eigenvalues of (default mixing * dielectric matrix)
  average eigenvalue GAMMA=   2.3470
  8.1240  6.4787  3.5721  2.8923  2.8923  2.3605  2.0355  1.6630  0.6119  1.2648
  0.9593  0.9593  0.8110  1.0027  1.0027  0.9226

 Free energy of the ion-electron system (eV)
  ---------------------------------------------------
  alpha Z        PSCENC =         7.03105501
  Ewald energy   TEWEN  =     10016.43403388
  -Hartree energ DENC   =    -10685.45898216
  -exchange      EXHF   =         0.00000000
  -V(xc)+E(xc)   XCENC  =       -35.18548497
  PAW double counting   =      1594.99340946    -1519.19336735
  entropy T*S    EENTRO =        -0.00000000
  eigenvalues    EBANDS =      -171.56670755
  atomic energy  EATOM  =       771.15194512
  Solvation  Ediel_sol  =         0.00000000
  ---------------------------------------------------
  free energy    TOTEN  =       -21.79409856 eV

  energy without entropy =      -21.79409856  energy(sigma->0) =      -21.79409856


--------------------------------------------------------------------------------------------------------




--------------------------------------- Iteration      1(  22)  ---------------------------------------


    POTLOK:  cpu time    0.3978: real time    0.3980
    SETDIJ:  cpu time    0.0069: real time    0.0068
     EDDAV:  cpu time    2.2908: real time    2.2941
       DOS:  cpu time    0.0025: real time    0.0025
    CHARGE:  cpu time    0.0974: real time    0.0974
    MIXING:  cpu time    0.0192: real time    0.0192
    --------------------------------------------
      LOOP:  cpu time    2.8146: real time    2.8180

 eigenvalue-minimisations  :  3303
 total energy-change (2. order) :-0.2031177E-05  (-0.5041581E-09)
 number of electron      18.0000003 magnetization 
 augmentation part       -0.5498347 magnetization 

 Broyden mixing:
  rms(total) = 0.47901E-04    rms(broyden)= 0.47901E-04
  rms(prec ) = 0.48036E-04
  weight for this iteration     100.00

 eigenvalues of (default mixing * dielectric matrix)
  average eigenvalue GAMMA=   2.3282
  8.4524  6.5734  4.1576  2.8258  2.6695  2.6695  1.9892  1.6474  1.4245  0.6119
  0.9623  0.9623  1.0729  0.9659  0.9659  0.8108  0.8181

 Free energy of the ion-electron system (eV)
  ---------------------------------------------------
  alpha Z        PSCENC =         7.03105501
  Ewald energy   TEWEN  =     10016.43403388
  -Hartree energ DENC   =    -10685.46154929
  -exchange      EXHF   =         0.00000000
  -V(xc)+E(xc)   XCENC  =       -35.18548580
  PAW double counting   =      1594.98663469    -1519.18657874
  entropy T*S    EENTRO =        -0.00000000
  eigenvalues    EBANDS =      -171.56415546
  atomic energy  EATOM  =       771.15194512
  Solvation  Ediel_sol  =         0.00000000
  ---------------------------------------------------
  free energy    TOTEN  =       -21.79410059 eV

  energy without entropy =      -21.79410059  energy(sigma->0) =      -21.79410059


--------------------------------------------------------------------------------------------------------




--------------------------------------- Iteration      1(  23)  ---------------------------------------


    POTLOK:  cpu time    0.4078: real time    0.4081
    SETDIJ:  cpu time    0.0072: real time    0.0072
     EDDAV:  cpu time    2.2780: real time    2.2825
       DOS:  cpu time    0.0027: real time    0.0027
    CHARGE:  cpu time    0.0973: real time    0.0973
    MIXING:  cpu time    0.0194: real time    0.0194
    --------------------------------------------
      LOOP:  cpu time    2.8124: real time    2.8171

 eigenvalue-minimisations  :  3309
 total energy-change (2. order) :-0.6085070E-06  (-0.6868073E-10)
 number of electron      18.0000003 magnetization 
 augmentation part       -0.5498334 magnetization 

 Broyden mixing:
  rms(total) = 0.31002E-04    rms(broyden)= 0.31002E-04
  rms(prec ) = 0.31071E-04
  weight for this iteration     100.00

 eigenvalues of (default mixing * dielectric matrix)
  average eigenvalue GAMMA=   2.4172
  8.6687  6.9933  4.6590  3.3444  2.6145  2.6145  2.4120  1.9693  1.6383  0.6119
  1.3096  0.9589  0.9589  0.8106  1.0441  1.0441  0.9288  0.9288

 Free energy of the ion-electron system (eV)
  ---------------------------------------------------
  alpha Z        PSCENC =         7.03105501
  Ewald energy   TEWEN  =     10016.43403388
  -Hartree energ DENC   =    -10685.46350003
  -exchange      EXHF   =         0.00000000
  -V(xc)+E(xc)   XCENC  =       -35.18548017
  PAW double counting   =      1594.96305089    -1519.16298623
  entropy T*S    EENTRO =        -0.00000000
  eigenvalues    EBANDS =      -171.56221968
  atomic energy  EATOM  =       771.15194512
  Solvation  Ediel_sol  =         0.00000000
  ---------------------------------------------------
  free energy    TOTEN  =       -21.79410120 eV

  energy without entropy =      -21.79410120  energy(sigma->0) =      -21.79410120


--------------------------------------------------------------------------------------------------------




--------------------------------------- Iteration      1(  24)  ---------------------------------------


    POTLOK:  cpu time    0.3962: real time    0.3964
    SETDIJ:  cpu time    0.0039: real time    0.0039
     EDDAV:  cpu time    2.1153: real time    2.1180
       DOS:  cpu time    0.0020: real time    0.0020
    CHARGE:  cpu time    0.0968: real time    0.0968
    MIXING:  cpu time    0.0201: real time    0.0201
    --------------------------------------------
      LOOP:  cpu time    2.6343: real time    2.6372

 eigenvalue-minimisations  :  3060
 total energy-change (2. order) :-0.4091828E-06  (-0.2200264E-10)
 number of electron      18.0000003 magnetization 
 augmentation part       -0.5498304 magnetization 

 Broyden mixing:
  rms(total) = 0.89545E-05    rms(broyden)= 0.89545E-05
  rms(prec ) = 0.90028E-05
  weight for this iteration     100.00

 eigenvalues of (default mixing * dielectric matrix)
[...]
     23       5.8416      0.00000
     24       5.8496      0.00000
     25       6.2455      0.00000
     26       6.2956      0.00000
     27       6.7658      0.00000
     28       6.8791      0.00000
     29       7.0372      0.00000
     30       7.3105      0.00000
     31       7.4516      0.00000
     32       7.4890      0.00000
     33       7.5970      0.00000
     34       7.6106      0.00000
     35       7.7985      0.00000
     36       7.8396      0.00000
     37       8.1276      0.00000
     38       8.1943      0.00000
     39       8.4500      0.00000
     40       8.4992      0.00000
     41       8.8166      0.00000
     42       8.8746      0.00000
     43       9.3196      0.00000
     44       9.3768      0.00000
     45       9.6052      0.00000
     46       9.8268      0.00000
     47      10.2910      0.00000
     48      10.3076      0.00000
     49      10.6400      0.00000
     50      10.9119      0.00000
     51      11.0352      0.00000
     52      11.2628      0.00000
     53      11.4287      0.00000
     54      11.8371      0.00000
     55      12.0705      0.00000
     56      12.2933      0.00000
     57      12.7007      0.00000
     58      12.9371      0.00000
     59      13.0607      0.00000
     60      13.0985      0.00000

 k-point    22 :       0.1111    0.4444    0.0000
  band No.  band energies     occupation 
      1     -16.7354      2.00000
      2     -16.5018      2.00000
      3     -10.0764      2.00000
      4      -9.4221      2.00000
      5      -8.5245      2.00000
      6      -7.6881      2.00000
      7      -6.3635      2.00000
      8      -6.2694      2.00000
      9      -4.9366      2.00000
     10      -2.3481      0.00000
     11      -1.7354      0.00000
     12      -0.7388      0.00000
     13      -0.3698      0.00000
     14       1.8462      0.00000
     15       4.2640      0.00000
     16       4.2811      0.00000
     17       4.5584      0.00000
     18       5.3870      0.00000
     19       5.8597      0.00000
     20       5.8629      0.00000
     21       6.4174      0.00000
     22       6.5111      0.00000
     23       6.5349      0.00000
     24       6.5575      0.00000
     25       6.5978      0.00000
     26       6.6865      0.00000
     27       6.7800      0.00000
     28       6.8015      0.00000
     29       6.9170      0.00000
     30       7.0078      0.00000
     31       7.1692      0.00000
     32       7.2449      0.00000
     33       7.4119      0.00000
     34       7.4623      0.00000
     35       7.7382      0.00000
     36       7.8324      0.00000
     37       8.0594      0.00000
     38       8.0701      0.00000
     39       8.4565      0.00000
     40       8.5632      0.00000
     41       8.8060      0.00000
     42       8.8717      0.00000
     43       9.3216      0.00000
     44       9.4090      0.00000
     45       9.6974      0.00000
     46       9.7577      0.00000
     47      10.1453      0.00000
     48      10.3393      0.00000
     49      10.3705      0.00000
     50      10.7240      0.00000
     51      10.9874      0.00000
     52      11.3042      0.00000
     53      11.3967      0.00000
     54      11.8432      0.00000
     55      11.9021      0.00000
     56      12.1657      0.00000
     57      12.2609      0.00000
     58      12.5681      0.00000
     59      12.8443      0.00000
     60      13.0417      0.00000

 k-point    23 :       0.2222    0.4444    0.0000
  band No.  band energies     occupation 
      1     -16.6675      2.00000
      2     -16.4471      2.00000
      3      -9.6396      2.00000
      4      -9.6110      2.00000
      5      -8.3224      2.00000
      6      -7.6222      2.00000
      7      -7.4579      2.00000
      8      -6.3847      2.00000
      9      -4.8368      2.00000
     10      -2.5348      0.00000
     11      -1.4669      0.00000
     12      -1.3373      0.00000
     13       0.0606      0.00000
     14       2.4838      0.00000
     15       4.0371      0.00000
     16       4.6208      0.00000
     17       5.1389      0.00000
     18       5.7083      0.00000
     19       6.0224      0.00000
     20       6.0964      0.00000
     21       6.1856      0.00000
     22       6.3145      0.00000
     23       6.4726      0.00000
     24       6.5717      0.00000
     25       6.8054      0.00000
     26       6.9681      0.00000
     27       7.0612      0.00000
     28       7.4726      0.00000
     29       7.4868      0.00000
     30       7.8850      0.00000
     31       8.0062      0.00000
     32       8.2138      0.00000
     33       8.2756      0.00000
     34       8.3400      0.00000
     35       8.4459      0.00000
     36       8.4983      0.00000
     37       8.6102      0.00000
     38       8.7847      0.00000
     39       8.8935      0.00000
     40       9.1280      0.00000
     41       9.1711      0.00000
     42       9.4219      0.00000
     43       9.4790      0.00000
     44       9.5968      0.00000
     45       9.7519      0.00000
     46      10.0809      0.00000
     47      10.1071      0.00000
     48      10.3781      0.00000
     49      10.4149      0.00000
     50      10.4222      0.00000
     51      10.4874      0.00000
     52      10.5049      0.00000
     53      10.6605      0.00000
     54      10.6966      0.00000
     55      10.9786      0.00000
     56      11.0871      0.00000
     57      11.1231      0.00000
     58      11.3192      0.00000
     59      11.5019      0.00000
     60      11.5315      0.00000

 k-point    24 :      -0.3333    0.4444    0.0000
  band No.  band energies     occupation 
      1     -16.9855      2.00000
      2     -16.6135      2.00000
      3      -9.8675      2.00000
      4      -9.0983      2.00000
      5      -8.3875      2.00000
      6      -7.6906      2.00000
      7      -6.3539      2.00000
      8      -6.1448      2.00000
      9      -5.1845      2.00000
     10      -2.3544      0.00000
     11      -1.9976      0.00000
     12      -1.1189      0.00000
     13      -0.2539      0.00000
     14       2.6318      0.00000
     15       3.6448      0.00000
     16       3.6520      0.00000
     17       4.4590      0.00000
     18       4.5623      0.00000
     19       4.6643      0.00000
     20       4.7236      0.00000
     21       4.9702      0.00000
     22       5.0099      0.00000
     23       5.3972      0.00000
     24       5.4154      0.00000
     25       5.8564      0.00000
     26       5.9518      0.00000
     27       6.1560      0.00000
     28       6.5011      0.00000
     29       6.5450      0.00000
     30       7.1577      0.00000
     31       7.1676      0.00000
     32       7.8518      0.00000
     33       7.9678      0.00000
     34       8.4124      0.00000
     35       8.7098      0.00000
     36       8.9349      0.00000
     37       9.0133      0.00000
     38       9.0179      0.00000
     39       9.1825      0.00000
     40       9.2404      0.00000
     41       9.4615      0.00000
     42       9.4751      0.00000
     43       9.6846      0.00000
     44       9.8405      0.00000
     45      10.1109      0.00000
     46      10.2054      0.00000
     47      10.4540      0.00000
     48      10.4673      0.00000
     49      10.8279      0.00000
     50      10.8976      0.00000
     51      11.1455      0.00000
     52      11.4095      0.00000
     53      11.5819      0.00000
     54      11.9562      0.00000
     55      11.9807      0.00000
     56      12.4031      0.00000
     57      12.6277      0.00000
     58      12.8421      0.00000
     59      13.0348      0.00000
     60      13.2058      0.00000

 k-point    25 :      -0.2222    0.4444    0.0000
  band No.  band energies     occupation 
      1     -17.0382      2.00000
      2     -16.6277      2.00000
      3      -9.6059      2.00000
      4      -9.0405      2.00000
      5      -8.1605      2.00000
      6      -7.8143      2.00000
      7      -7.0358      2.00000
      8      -5.9216      2.00000
      9      -5.2147      2.00000
     10      -2.3862      0.00000
     11      -1.9982      0.00000
     12      -1.5518      0.00000
     13      -0.0814      0.00000
     14       3.2107      0.00000
     15       3.6177      0.00000
     16       3.7863      0.00000
     17       4.3226      0.00000
     18       4.4029      0.00000
     19       4.5119      0.00000
     20       4.6940      0.00000
     21       4.8410      0.00000
     22       5.0756      0.00000
     23       5.1958      0.00000
     24       5.3727      0.00000
     25       5.5933      0.00000
     26       5.8666      0.00000
     27       6.1893      0.00000
     28       6.5268      0.00000
     29       6.7299      0.00000
     30       7.0021      0.00000
     31       7.2224      0.00000
     32       7.7576      0.00000
     33       7.8865      0.00000
     34       7.9774      0.00000
     35       8.1916      0.00000
     36       8.8649      0.00000
     37       9.0580      0.00000
     38       9.2422      0.00000
     39       9.9810      0.00000
     40      10.1926      0.00000
     41      10.3673      0.00000
     42      10.7313      0.00000
     43      10.8244      0.00000
     44      10.8951      0.00000
     45      10.9077      0.00000
     46      10.9363      0.00000
     47      11.0268      0.00000
     48      11.1073      0.00000
     49      11.1532      0.00000
     50      11.1603      0.00000
     51      11.3027      0.00000
     52      11.3584      0.00000
     53      11.5295      0.00000
     54      11.5338      0.00000
     55      11.6356      0.00000
     56      11.6543      0.00000
     57      11.9932      0.00000
     58      12.0513      0.00000
     59      12.0885      0.00000
     60      12.2229      0.00000


--------------------------------------------------------------------------------------------------------


 soft charge-density along one line, spin component           1
         0         1         2         3         4         5         6         7         8         9
 total charge-density along one line
 
 pseudopotential strength for first ion, spin component:           1
-10.279  -0.000   0.000  -0.000  -0.000 -10.457  -0.000   0.000
 -0.000 -10.279   0.000  -0.000  -0.000  -0.000 -10.457   0.000
  0.000   0.000 -10.258   0.000  -0.000   0.000   0.000 -10.436
 -0.000  -0.000   0.000 -10.279   0.000  -0.000  -0.000   0.000
 -0.000  -0.000  -0.000   0.000 -10.279  -0.000  -0.000  -0.000
-10.457  -0.000   0.000  -0.000  -0.000 -10.624  -0.000   0.000
 -0.000 -10.457   0.000  -0.000  -0.000  -0.000 -10.625   0.000
  0.000   0.000 -10.436   0.000  -0.000   0.000   0.000 -10.604
 -0.000  -0.000   0.000 -10.457   0.000  -0.000  -0.000   0.000
 -0.000  -0.000  -0.000   0.000 -10.457  -0.000  -0.000  -0.000
  0.000  -0.000  -0.005  -0.000  -0.000   0.000  -0.000  -0.005
  0.000  -0.000  -0.010  -0.000  -0.000   0.000  -0.000  -0.010
  0.000  -0.000   0.000   0.000  -0.007   0.000  -0.000   0.000
  0.000  -0.000   0.000   0.000  -0.000   0.000  -0.000   0.000
 -0.007   0.000  -0.000  -0.000   0.000  -0.007   0.000  -0.000
  0.000  -0.000   0.000   0.000  -0.008   0.000  -0.000   0.000
  0.000  -0.000   0.000   0.000  -0.000   0.000  -0.000   0.000
 -0.008   0.000  -0.000  -0.000   0.000  -0.008   0.000  -0.000
 total augmentation occupancy for first ion, spin component:           1
  2.817   0.000   0.000   0.000   0.000  -3.439   0.000   0.000   0.000  -0.000   0.000  -0.000  -0.000   0.000   0.411   0.000
  0.000   4.503   0.000  -0.000   0.000   0.000  -5.787   0.000   0.000  -0.000   0.000   0.000   0.000   0.000   0.000   0.000
  0.000   0.000   1.884   0.000  -0.000   0.000   0.000  -2.190   0.000  -0.000  -0.094   0.019   0.000   0.000  -0.000  -0.000
  0.000  -0.000   0.000   4.503   0.000   0.000   0.000   0.000  -5.787   0.000   0.000   0.000   0.000  -0.000   0.000   0.000
  0.000   0.000  -0.000   0.000   2.817  -0.000   0.000  -0.000   0.000  -3.439  -0.000   0.000   0.411   0.000  -0.000  -0.059
 -3.439   0.000   0.000  -0.000  -0.000   4.958   0.000  -0.000   0.000   0.000  -0.000   0.000   0.000   0.000  -0.479  -0.000
  0.000  -5.787   0.000   0.000  -0.000   0.000   7.882   0.000  -0.000   0.000   0.000   0.000  -0.000  -0.000   0.000  -0.000
  0.000   0.000  -2.190   0.000  -0.000  -0.000   0.000   3.468   0.000   0.000   0.224  -0.028  -0.000   0.000   0.000   0.000
  0.000   0.000   0.000  -5.787   0.000   0.000  -0.000   0.000   7.882   0.000   0.000   0.000   0.000   0.000   0.000   0.000
 -0.000   0.000  -0.000   0.000  -3.439   0.000   0.000   0.000   0.000   4.958   0.000  -0.000  -0.479   0.000   0.000   0.065
  0.000   0.000  -0.094   0.000  -0.000  -0.000   0.000   0.224   0.000   0.000   1.720  -0.117  -0.000   0.000   0.000   0.000
 -0.000   0.000   0.019   0.000   0.000   0.000   0.000  -0.028   0.000  -0.000  -0.117   0.010   0.000   0.000  -0.000  -0.000
 -0.000   0.000   0.000   0.000   0.411   0.000  -0.000  -0.000   0.000  -0.479  -0.000   0.000   0.349   0.000  -0.000  -0.043
  0.000   0.000   0.000  -0.000   0.000   0.000  -0.000   0.000   0.000   0.000   0.000   0.000   0.000   0.420   0.000   0.000
  0.411   0.000  -0.000  -0.000  -0.000  -0.479   0.000   0.000  -0.000   0.000   0.000  -0.000  -0.000   0.000   0.349   0.000
  0.000   0.000  -0.000   0.000  -0.059  -0.000   0.000   0.000   0.000   0.065   0.000  -0.000  -0.043   0.000   0.000   0.006
  0.000  -0.000   0.000   0.000   0.000   0.000   0.000   0.000  -0.000   0.000   0.000   0.000   0.000  -0.051   0.000   0.000
 -0.059   0.000   0.000   0.000   0.000   0.065   0.000  -0.000   0.000  -0.000  -0.000   0.000   0.000   0.000  -0.043  -0.000


------------------------ aborting loop because EDIFF is reached ----------------------------------------


 


 total charge     
 
# of ion       s       p       d       tot
------------------------------------------
    1        0.415   0.595   4.386   5.395
    2        1.364   2.330   0.000   3.694
    3        1.364   2.330   0.000   3.694
--------------------------------------------------
tot          3.143   5.254   4.386  12.782
 
    CHARGE:  cpu time    0.1168: real time    0.1168
    FORLOC:  cpu time    0.0176: real time    0.0176
    FORNL :  cpu time    0.1571: real time    0.1571
    STRESS:  cpu time    1.0244: real time    1.0244
    FORCOR:  cpu time    0.3897: real time    0.3897
    FORHAR:  cpu time    0.0990: real time    0.0990
    MIXING:  cpu time    0.0235: real time    0.0235
    OFIELD:  cpu time    0.0000: real time    0.0000

  FORCE on cell =-STRESS in cart. coord.  units (eV):
  Direction    XX          YY          ZZ          XY          YZ          ZX
  --------------------------------------------------------------------------------------
  Alpha Z     7.03106     7.03106     7.03106
  Ewald   10583.63029 10583.63027-11150.82648    -0.00002    -0.00000     0.00000
  Hartree 10647.20365 10647.20364-10608.94280    -0.00000    -0.00000     0.00000
  E(xc)     -70.32643   -70.32643   -70.93523     0.00000    -0.00000    -0.00000
  Local  -21506.06029-21506.06024 21478.50827     0.00002     0.00000    -0.00000
  n-local   126.25405   126.82166   131.75547    -0.16389    -0.00000    -0.00000
  augment   -25.56189   -25.56193   -26.67197     0.00000    -0.00000     0.00000
  Kinetic   233.85983   240.80165   240.05953    -2.00393     0.00000     0.00000
  Fock        0.00000     0.00000     0.00000     0.00000     0.00000     0.00000
  -------------------------------------------------------------------------------------
  Total      -0.21503    -0.21503    -0.02215    -0.00000     0.00000     0.00000
  in kB      -0.81697    -0.81698    -0.08417    -0.00001     0.00000     0.00000
  external pressure =       -0.57 kB  Pullay stress =        0.00 kB


 VOLUME and BASIS-vectors are now :
 -----------------------------------------------------------------------------
  energy-cutoff  :      400.00
  volume of cell :      421.69
      direct lattice vectors                 reciprocal lattice vectors
     1.595000000 -2.762621038  0.000000000     0.313479624 -0.180987545  0.000000000
     1.595000000  2.762621038  0.000000000     0.313479624  0.180987545  0.000000000
     0.000000000  0.000000000 47.850000000     0.000000000  0.000000000  0.020898642

  length of vectors
     3.190000000  3.190000000 47.850000000     0.361975090  0.361975090  0.020898642


 FORCES acting on ions
    electron-ion (+dipol)            ewald-force                    non-local-force                 convergence-correction
 -----------------------------------------------------------------------------------------------
   0.857E-05 -.498E-05 0.585E-05   -.935E-05 0.540E-05 -.186E-10   -.242E-05 0.140E-05 0.000E+00   -.586E-08 0.338E-08 -.101E-08
   -.471E-05 0.277E-05 0.636E+03   0.468E-05 -.270E-05 -.641E+03   0.172E-05 -.992E-06 0.475E+01   0.909E-08 -.524E-08 -.381E-05
   -.494E-05 0.278E-05 -.636E+03   0.468E-05 -.270E-05 0.641E+03   0.172E-05 -.992E-06 -.475E+01   0.909E-08 -.524E-08 0.381E-05
 -----------------------------------------------------------------------------------------------
   -.107E-05 0.570E-06 0.167E-04   0.127E-13 -.786E-14 -.114E-12   0.102E-05 -.588E-06 0.000E+00   0.123E-07 -.711E-08 -.275E-08
 
 
 POSITION                                       TOTAL-FORCE (eV/Angst)
 -----------------------------------------------------------------------------------
      0.00000      0.00000      1.56469        -0.000003      0.000002      0.000000
      1.59500     -0.92087      0.00346         0.000002     -0.000001      0.000462
      1.59500     -0.92087      3.12593         0.000002     -0.000001     -0.000462
 -----------------------------------------------------------------------------------
    total drift:                               -0.000000     -0.000000      0.000017


--------------------------------------------------------------------------------------------------------



  FREE ENERGIE OF THE ION-ELECTRON SYSTEM (eV)
  ---------------------------------------------------
  free  energy   TOTEN  =       -21.79410180 eV

  energy  without entropy=      -21.79410180  energy(sigma->0) =      -21.79410180
 


--------------------------------------------------------------------------------------------------------


    POTLOK:  cpu time    0.4119: real time    0.4128


--------------------------------------------------------------------------------------------------------


 writing wavefunctions
     LOOP+:  cpu time  195.7543: real time  344.0116
    4ORBIT:  cpu time    0.0000: real time    0.0000
 


 total charge     
 
# of ion       s       p       d       tot
------------------------------------------
    1        0.415   0.595   4.386   5.395
    2        1.364   2.330   0.000   3.694
    3        1.364   2.330   0.000   3.694
--------------------------------------------------
tot          3.143   5.254   4.386  12.782
 

 total amount of memory used by VASP MPI-rank0   200213. kBytes
=======================================================================

   base      :      30000. kBytes
   nonl-proj :      55925. kBytes
   fftplans  :      17258. kBytes
   grid      :      34968. kBytes
   one-center:         46. kBytes
   wavefun   :      62016. kBytes
 
  
  
 General timing and accounting informations for this job:
 ========================================================
  
                  Total CPU time used (sec):      199.773
                            User time (sec):      194.276
                          System time (sec):        5.497
                         Elapsed time (sec):      349.380
  
                   Maximum memory used (kb):      297012.
                   Average memory used (kb):           0.
  
                          Minor page faults:       281390
                          Major page faults:            0
                 Voluntary context switches:        55411
