 
             +---------------------------------------------------+
             |                                                   |
             |                   WANNIER90                       |
             |                                                   |
             +---------------------------------------------------+
             |                                                   |
             |        Welcome to the Maximally-Localized         |
             |        Generalized Wannier Functions code         |
             |            http://www.wannier.org                 |
             |                                                   |
             |                                                   |
             |  Wannier90 Developer Group:                       |
             |    Giovanni Pizzi    (EPFL)                       |
             |    Valerio Vitale    (Cambridge)                  |
             |    David Vanderbilt  (Rutgers University)         |
             |    Nicola Marzari    (EPFL)                       |
             |    Ivo Souza         (Universidad del Pais Vasco) |
             |    Arash A. Mostofi  (Imperial College London)    |
             |    Jonathan R. Yates (University of Oxford)       |
             |                                                   |
             |  For the full list of Wannier90 3.x authors,      |
             |  please check the code documentation and the      |
             |  README on the GitHub page of the code            |
             |                                                   |
             |                                                   |
             |  Please cite                                      |
             |                                                   |
             |  [ref] "An updated version of Wannier90:          |
             |        A Tool for Obtaining Maximally Localised   |
             |        Wannier Functions", A. A. Mostofi,         |
             |        J. R. Yates, G. Pizzi, Y. S. Lee,          |
             |        I. Souza, D. Vanderbilt and N. Marzari,    |
             |        Comput. Phys. Commun. 185, 2309 (2014)     |
             |        http://dx.doi.org/10.1016/j.cpc.2014.05.003|
             |                                                   |
             |  in any publications arising from the use of      |
             |  this code. For the method please cite            |
             |                                                   |
             |  [ref] "Maximally Localized Generalised Wannier   |
             |         Functions for Composite Energy Bands"     |
             |         N. Marzari and D. Vanderbilt              |
             |         Phys. Rev. B 56 12847 (1997)              |
             |                                                   |
             |  [ref] "Maximally Localized Wannier Functions     |
             |         for Entangled Energy Bands"               |
             |         I. Souza, N. Marzari and D. Vanderbilt    |
             |         Phys. Rev. B 65 035109 (2001)             |
             |                                                   |
             |                                                   |
             | Copyright (c) 1996-2019                           |
             |        The Wannier90 Developer Group and          |
             |        individual contributors                    |
             |                                                   |
             |      Release: 3.0.0       27th February 2019      |
             |                                                   |
             | This program is free software; you can            |
             | redistribute it and/or modify it under the terms  |
             | of the GNU General Public License as published by |
             | the Free Software Foundation; either version 2 of |
             | the License, or (at your option) any later version|
             |                                                   |
             | This program is distributed in the hope that it   |
             | will be useful, but WITHOUT ANY WARRANTY; without |
             | even the implied warranty of MERCHANTABILITY or   |
             | FITNESS FOR A PARTICULAR PURPOSE. See the GNU     |
             | General Public License for more details.          |
             |                                                   |
             | You should have received a copy of the GNU General|
             | Public License along with this program; if not,   |
             | write to the Free Software Foundation, Inc.,      |
             | 675 Mass Ave, Cambridge, MA 02139, USA.           |
             |                                                   |
             +---------------------------------------------------+
             |    Execution started on  9Mar2019 at 05:09:50     |
             +---------------------------------------------------+
 
 ******************************************************************************
 * -> Using CODATA 2006 constant values                                       *
 *    (http://physics.nist.gov/cuu/Constants/index.html)                      *
 * -> Using Bohr value from CODATA                                            *
 ******************************************************************************
 

 Running in serial (with parallel executable)
 
                                    ------
                                    SYSTEM
                                    ------
 
                              Lattice Vectors (Ang)
                    a_1     1.595000  -2.762621   0.000000
                    a_2     1.595000   2.762621   0.000000
                    a_3     0.000000   0.000000  47.850000
 
                   Unit Cell Volume:     421.69061  (Ang^3)
 
                        Reciprocal-Space Vectors (Ang^-1)
                    b_1     1.969651  -1.137178   0.000000
                    b_2     1.969651   1.137178   0.000000
                    b_3     0.000000   0.000000   0.131310
  
 *----------------------------------------------------------------------------*
 |   Site       Fractional Coordinate          Cartesian Coordinate (Ang)     |
 +----------------------------------------------------------------------------+
 | Mo   1   0.00000   0.00000   0.03270   |    0.00000   0.00000   1.56469    |
 | S    1   0.66667   0.33333   0.00007   |    1.59500  -0.92087   0.00346    |
 | S    2   0.66667   0.33333   0.06533   |    1.59500  -0.92087   3.12593    |
 *----------------------------------------------------------------------------*
                                ------------
                                K-POINT GRID
                                ------------
  
             Grid size =  9 x  9 x  1      Total points =   81
  
  
 *---------------------------------- MAIN ------------------------------------*
 |  Number of Wannier Functions               :                11             |
 |  Number of Objective Wannier Functions     :                11             |
 |  Number of input Bloch states              :                11             |
 |  Output verbosity (1=low, 5=high)          :                 1             |
 |  Timing Level (1=low, 5=high)              :                 1             |
 |  Optimisation (0=memory, 3=speed)          :                 3             |
 |  Length Unit                               :               Ang             |
 |  Post-processing setup (write *.nnkp)      :                 F             |
 |  Using Gamma-only branch of algorithms     :                 F             |
 |  Wavefunction (UNK) file-type              :       unformatted             |
 |  Wavefunction spin channel                 :                up             |
 *----------------------------------------------------------------------------*
 *------------------------------- WANNIERISE ---------------------------------*
 |  Total number of iterations                :               100             |
 |  Number of CG steps before reset           :                 5             |
 |  Trial step length for line search         :             2.000             |
 |  Convergence tolerence                     :         0.100E-11             |
 |  Convergence window                        :                -1             |
 |  Iterations between writing output         :                 1             |
 |  Iterations between backing up to disk     :               100             |
 |  Write r^2_nm to file                      :                 F             |
 |  Write xyz WF centres to file              :                 F             |
 |  Write on-site energies <0n|H|0n> to file  :                 F             |
 |  Use guiding centre to control phases      :                 F             |
 |  Use phases for initial projections        :                 F             |
 *----------------------------------------------------------------------------*
 *-------------------------------- PLOTTING ----------------------------------*
 |  Plotting Wannier functions                :                 T             |
 |   Size of supercell for plotting           :     3x    3x    3             |
 |   Plotting mode (molecule or crystal)      :           crystal             |
 |   Plotting format                          :          xcrysden             |
 *----------------------------------------------------------------------------*
 |  Plotting Hamiltonian in WF basis          :                 T             |
 *----------------------------------------------------------------------------*
 Time to read parameters        0.016 (sec)

 *---------------------------------- K-MESH ----------------------------------*
 +----------------------------------------------------------------------------+
 |                    Distance to Nearest-Neighbour Shells                    |
 |                    ------------------------------------                    |
 |          Shell             Distance (Ang^-1)          Multiplicity         |
 |          -----             -----------------          ------------         |
 |             1                   0.131310                      2            |
 |             2                   0.252706                      6            |
 |             3                   0.262620                      2            |
 |             4                   0.284786                     12            |
 |             5                   0.364458                     12            |
 |             6                   0.393930                      2            |
 |             7                   0.437700                      6            |
 |             8                   0.456972                     12            |
 |             9                   0.468019                     12            |
 |            10                   0.505413                      6            |
 |            11                   0.510442                     12            |
 |            12                   0.522192                     12            |
 |            13                   0.525240                      2            |
 |            14                   0.569571                     12            |
 |            15                   0.582870                     12            |
 |            16                   0.588865                     12            |
 |            17                   0.640799                     12            |
 |            18                   0.656550                      2            |
 |            19                   0.668598                     12            |
 |            20                   0.681370                     24            |
 |            21                   0.683709                     12            |
 |            22                   0.703505                     12            |
 |            23                   0.718326                     24            |
 |            24                   0.728916                     12            |
 |            25                   0.758119                      6            |
 |            26                   0.769407                     12            |
 |            27                   0.776018                     24            |
 |            28                   0.789075                     12            |
 |            29                   0.802318                     12            |
 |            30                   0.828553                     12            |
 |            31                   0.850236                     24            |
 |            32                   0.854357                     12            |
 |            33                   0.875400                      6            |
 |            34                   0.885194                     12            |
 |            35                   0.911145                     12            |
 |            36                   0.913945                     12            |
 +----------------------------------------------------------------------------+
 | The b-vectors are chosen automatically                                     |
 | The following shells are used:   1,  2                                     |
 +----------------------------------------------------------------------------+
 |                        Shell   # Nearest-Neighbours                        |
 |                        -----   --------------------                        |
 |                          1               2                                 |
 |                          2               6                                 |
 +----------------------------------------------------------------------------+
 | Completeness relation is fully satisfied [Eq. (B1), PRB 56, 12847 (1997)]  |
 +----------------------------------------------------------------------------+
 |                  b_k Vectors (Ang^-1) and Weights (Ang^2)                  |
 |                  ----------------------------------------                  |
 |            No.         b_k(x)      b_k(y)      b_k(z)        w_b           |
 |            ---        --------------------------------     --------        |
 |             1         0.000000    0.000000    0.131310    28.998408        |
 |             2         0.000000    0.000000   -0.131310    28.998408        |
 |             3         0.218850   -0.126353    0.000000     5.219713        |
 |             4         0.218850    0.126353    0.000000     5.219713        |
 |             5         0.000000   -0.252706    0.000000     5.219713        |
 |             6        -0.218850    0.126353    0.000000     5.219713        |
 |             7        -0.218850   -0.126353    0.000000     5.219713        |
 |             8         0.000000    0.252706    0.000000     5.219713        |
 +----------------------------------------------------------------------------+
 |                           b_k Directions (Ang^-1)                          |
 |                           -----------------------                          |
 |            No.           x           y           z                         |
 |            ---        --------------------------------                     |
 |             1         0.000000    0.000000    0.131310                     |
 |             2         0.218850   -0.126353    0.000000                     |
 |             3         0.218850    0.126353    0.000000                     |
 |             4         0.000000   -0.252706    0.000000                     |
 +----------------------------------------------------------------------------+
  
 Time to get kmesh              0.082 (sec)
 *============================================================================*
 |                              MEMORY ESTIMATE                               |
 |         Maximum RAM allocated during each phase of the calculation         |
 *============================================================================*
 |                            Wannierise:            3.32 Mb                  |
 |                          plot_wannier:            3.32 Mb                  |
 *----------------------------------------------------------------------------*
  
 Starting a new Wannier90 calculation ...


 Reading overlaps from wannier90.mmn    : File generated by VASP: MoS2_ml

 Reading projections from wannier90.amn : File generated by VASP: MoS2_ml

 Time to read overlaps          0.090 (sec)

 Writing checkpoint file wannier90.chk... done

 
 *------------------------------- WANNIERISE ---------------------------------*
 +--------------------------------------------------------------------+<-- CONV
 | Iter  Delta Spread     RMS Gradient      Spread (Ang^2)      Time  |<-- CONV
 +--------------------------------------------------------------------+<-- CONV
 
 ------------------------------------------------------------------------------
 Initial State
  WF centre and spread    1  (  0.000000, -0.000470,  1.564695 )     1.51044811
  WF centre and spread    2  (  0.000000, -0.037241,  1.564695 )     1.79363184
  WF centre and spread    3  (  0.000000,  0.036439,  1.564695 )     1.77415119
  WF centre and spread    4  (  0.000000, -0.091043,  1.564695 )     1.64803500
  WF centre and spread    5  (  0.000000,  0.086361,  1.564695 )     1.64997965
  WF centre and spread    6  (  1.595000, -0.921074, -0.087646 )     1.96635763
  WF centre and spread    7  (  1.595000, -0.905662,  0.073363 )     1.90982941
  WF centre and spread    8  (  1.595000, -0.933060,  0.071468 )     1.88645488
  WF centre and spread    9  (  1.595000, -0.921074,  3.217036 )     1.96635879
  WF centre and spread   10  (  1.595000, -0.905662,  3.056027 )     1.90982977
  WF centre and spread   11  (  1.595000, -0.933060,  3.057922 )     1.88645523
  Sum of centres and spreads (  9.569999, -5.525546, 17.211645 )    19.90153149
 
      0     0.199E+02     0.0000000000       19.9015313465       0.00  <-- CONV
        O_D=      0.0621364 O_OD=      2.5548824 O_TOT=     19.9015313 <-- SPRD
 ------------------------------------------------------------------------------
 Cycle:      1
  WF centre and spread    1  (  0.000000, -0.000430,  1.564695 )     1.46051339
  WF centre and spread    2  (  0.000000, -0.041194,  1.564695 )     1.73329744
  WF centre and spread    3  (  0.000000,  0.040426,  1.564695 )     1.72534892
  WF centre and spread    4  (  0.000000, -0.097888,  1.564695 )     1.59256563
  WF centre and spread    5  (  0.000000,  0.094601,  1.564695 )     1.59484124
  WF centre and spread    6  (  1.595000, -0.920727, -0.093215 )     1.88579085
  WF centre and spread    7  (  1.595000, -0.908295,  0.060327 )     1.80313678
  WF centre and spread    8  (  1.595000, -0.931520,  0.058957 )     1.78872804
  WF centre and spread    9  (  1.595000, -0.920727,  3.222605 )     1.88579191
  WF centre and spread   10  (  1.595000, -0.908295,  3.069062 )     1.80313710
  WF centre and spread   11  (  1.595000, -0.931520,  3.070433 )     1.78872836
  Sum of centres and spreads (  9.569999, -5.525568, 17.211645 )    19.06187965
 
      1    -0.840E+00     0.9888473623       19.0618795095       0.02  <-- CONV
        O_D=      0.0353610 O_OD=      1.7420060 O_TOT=     19.0618795 <-- SPRD
 Delta: O_D= -0.2677543E-01 O_OD= -0.8128764E+00 O_TOT= -0.8396518E+00 <-- DLTA
 ------------------------------------------------------------------------------
 Cycle:      2
  WF centre and spread    1  (  0.000000, -0.000198,  1.564695 )     1.45451390
  WF centre and spread    2  (  0.000000, -0.042755,  1.564695 )     1.73749012
  WF centre and spread    3  (  0.000000,  0.041931,  1.564695 )     1.73157121
  WF centre and spread    4  (  0.000000, -0.102349,  1.564695 )     1.59885026
  WF centre and spread    5  (  0.000000,  0.099501,  1.564695 )     1.60200320
  WF centre and spread    6  (  1.595000, -0.920662, -0.096305 )     1.82876419
  WF centre and spread    7  (  1.595000, -0.909702,  0.052559 )     1.74009966
  WF centre and spread    8  (  1.595000, -0.930500,  0.051834 )     1.73353947
  WF centre and spread    9  (  1.595000, -0.920662,  3.225695 )     1.82876517
  WF centre and spread   10  (  1.595000, -0.909702,  3.076831 )     1.74009993
  WF centre and spread   11  (  1.595000, -0.930500,  3.077556 )     1.73353975
  Sum of centres and spreads (  9.569999, -5.525598, 17.211645 )    18.72923685
 
      2    -0.333E+00     0.7145829500       18.7292367056       0.04  <-- CONV
        O_D=      0.0342468 O_OD=      1.4104774 O_TOT=     18.7292367 <-- SPRD
 Delta: O_D= -0.1114164E-02 O_OD= -0.3315286E+00 O_TOT= -0.3326428E+00 <-- DLTA
 ------------------------------------------------------------------------------
 Cycle:      3
  WF centre and spread    1  (  0.000000,  0.000058,  1.564695 )     1.46708928
  WF centre and spread    2  ( -0.000000, -0.043704,  1.564695 )     1.75962386
  WF centre and spread    3  (  0.000000,  0.043362,  1.564695 )     1.75364828
  WF centre and spread    4  (  0.000000, -0.106601,  1.564695 )     1.61496621
  WF centre and spread    5  (  0.000000,  0.104862,  1.564695 )     1.61662589
  WF centre and spread    6  (  1.595000, -0.920720, -0.097473 )     1.78065328
  WF centre and spread    7  (  1.595000, -0.910921,  0.047660 )     1.69001770
  WF centre and spread    8  (  1.595000, -0.930085,  0.047439 )     1.68874147
  WF centre and spread    9  (  1.595000, -0.920720,  3.226863 )     1.78065420
  WF centre and spread   10  (  1.595000, -0.910921,  3.081730 )     1.69001794
  WF centre and spread   11  (  1.595000, -0.930085,  3.081951 )     1.68874171
  Sum of centres and spreads (  9.569999, -5.525475, 17.211645 )    18.53077981
 
      3    -0.198E+00     0.5380511104       18.5307796705       0.05  <-- CONV
        O_D=      0.0321438 O_OD=      1.2141233 O_TOT=     18.5307797 <-- SPRD
 Delta: O_D= -0.2103000E-02 O_OD= -0.1963540E+00 O_TOT= -0.1984570E+00 <-- DLTA
 ------------------------------------------------------------------------------
 Cycle:      4
  WF centre and spread    1  (  0.000000,  0.000144,  1.564695 )     1.48465257
  WF centre and spread    2  ( -0.000000, -0.044527,  1.564695 )     1.77737465
  WF centre and spread    3  (  0.000000,  0.044694,  1.564695 )     1.77297127
  WF centre and spread    4  (  0.000000, -0.109485,  1.564695 )     1.62724045
  WF centre and spread    5  (  0.000000,  0.108531,  1.564695 )     1.62761071
  WF centre and spread    6  (  1.595000, -0.920733, -0.097029 )     1.75422141
  WF centre and spread    7  (  1.595000, -0.911392,  0.045607 )     1.65830795
  WF centre and spread    8  (  1.595000, -0.930229,  0.045581 )     1.65955020
  WF centre and spread    9  (  1.595000, -0.920733,  3.226419 )     1.75422230
  WF centre and spread   10  (  1.595000, -0.911392,  3.083783 )     1.65830817
  WF centre and spread   11  (  1.595000, -0.930229,  3.083809 )     1.65955043
  Sum of centres and spreads (  9.569999, -5.525351, 17.211645 )    18.43401011
 
      4    -0.968E-01     0.4036778006       18.4340099705       0.07  <-- CONV
        O_D=      0.0310013 O_OD=      1.1184962 O_TOT=     18.4340100 <-- SPRD
 Delta: O_D= -0.1142537E-02 O_OD= -0.9562716E-01 O_TOT= -0.9676970E-01 <-- DLTA
 ------------------------------------------------------------------------------
 Cycle:      5
  WF centre and spread    1  (  0.000000,  0.000151,  1.564695 )     1.49318778
  WF centre and spread    2  ( -0.000000, -0.045002,  1.564695 )     1.78445477
  WF centre and spread    3  (  0.000000,  0.045419,  1.564695 )     1.78185177
  WF centre and spread    4  (  0.000000, -0.110472,  1.564695 )     1.63280263
  WF centre and spread    5  (  0.000000,  0.109688,  1.564695 )     1.63287382
  WF centre and spread    6  (  1.595000, -0.920693, -0.096574 )     1.74553005
  WF centre and spread    7  (  1.595000, -0.911418,  0.044892 )     1.64611511
  WF centre and spread    8  (  1.595000, -0.930430,  0.044904 )     1.64806039
  WF centre and spread    9  (  1.595000, -0.920693,  3.225964 )     1.74553092
  WF centre and spread   10  (  1.595000, -0.911418,  3.084498 )     1.64611533
  WF centre and spread   11  (  1.595000, -0.930430,  3.084486 )     1.64806061
  Sum of centres and spreads (  9.569999, -5.525297, 17.211645 )    18.40458319
 
      5    -0.294E-01     0.2478752335       18.4045830497       0.08  <-- CONV
        O_D=      0.0312923 O_OD=      1.0887782 O_TOT=     18.4045830 <-- SPRD
 Delta: O_D=  0.2910230E-03 O_OD= -0.2971794E-01 O_TOT= -0.2942692E-01 <-- DLTA
 ------------------------------------------------------------------------------
 Cycle:      6
  WF centre and spread    1  (  0.000000,  0.000164,  1.564695 )     1.49740701
  WF centre and spread    2  ( -0.000000, -0.045209,  1.564695 )     1.78803432
  WF centre and spread    3  (  0.000000,  0.045739,  1.564695 )     1.78663060
  WF centre and spread    4  (  0.000000, -0.110796,  1.564695 )     1.63529519
  WF centre and spread    5  (  0.000000,  0.110004,  1.564695 )     1.63529516
  WF centre and spread    6  (  1.595000, -0.920642, -0.096223 )     1.74288012
  WF centre and spread    7  (  1.595000, -0.911379,  0.044459 )     1.64021438
  WF centre and spread    8  (  1.595000, -0.930567,  0.044478 )     1.64245951
  WF centre and spread    9  (  1.595000, -0.920642,  3.225613 )     1.74288098
  WF centre and spread   10  (  1.595000, -0.911379,  3.084931 )     1.64021459
  WF centre and spread   11  (  1.595000, -0.930567,  3.084912 )     1.64245972
  Sum of centres and spreads (  9.569999, -5.525274, 17.211645 )    18.39377158
 
      6    -0.108E-01     0.1439655844       18.3937714446       0.10  <-- CONV
        O_D=      0.0311415 O_OD=      1.0781175 O_TOT=     18.3937714 <-- SPRD
 Delta: O_D= -0.1508540E-03 O_OD= -0.1066075E-01 O_TOT= -0.1081161E-01 <-- DLTA
 ------------------------------------------------------------------------------
 Cycle:      7
  WF centre and spread    1  (  0.000000,  0.000169,  1.564695 )     1.49751373
  WF centre and spread    2  ( -0.000000, -0.045193,  1.564695 )     1.78801705
  WF centre and spread    3  (  0.000000,  0.045725,  1.564695 )     1.78679305
  WF centre and spread    4  (  0.000000, -0.110717,  1.564695 )     1.63504538
  WF centre and spread    5  (  0.000000,  0.109900,  1.564695 )     1.63510726
  WF centre and spread    6  (  1.595000, -0.920625, -0.096161 )     1.74318504
  WF centre and spread    7  (  1.595000, -0.911368,  0.044372 )     1.63954102
  WF centre and spread    8  (  1.595000, -0.930587,  0.044382 )     1.64152251
  WF centre and spread    9  (  1.595000, -0.920625,  3.225551 )     1.74318590
  WF centre and spread   10  (  1.595000, -0.911368,  3.085018 )     1.63954124
  WF centre and spread   11  (  1.595000, -0.930587,  3.085008 )     1.64152272
  Sum of centres and spreads (  9.569999, -5.525278, 17.211645 )    18.39097490
 
      7    -0.280E-02     0.0877480238       18.3909747616       0.11  <-- CONV
        O_D=      0.0310015 O_OD=      1.0754608 O_TOT=     18.3909748 <-- SPRD
 Delta: O_D= -0.1399641E-03 O_OD= -0.2656719E-02 O_TOT= -0.2796683E-02 <-- DLTA
 ------------------------------------------------------------------------------
 Cycle:      8
  WF centre and spread    1  (  0.000000,  0.000179,  1.564695 )     1.49788517
  WF centre and spread    2  ( -0.000000, -0.045170,  1.564695 )     1.78832184
  WF centre and spread    3  (  0.000000,  0.045694,  1.564695 )     1.78744416
  WF centre and spread    4  (  0.000000, -0.110579,  1.564695 )     1.63496052
  WF centre and spread    5  (  0.000000,  0.109707,  1.564695 )     1.63512348
  WF centre and spread    6  (  1.595000, -0.920589, -0.096027 )     1.74402140
  WF centre and spread    7  (  1.595000, -0.911348,  0.044224 )     1.63864174
  WF centre and spread    8  (  1.595000, -0.930626,  0.044224 )     1.64013886
  WF centre and spread    9  (  1.595000, -0.920589,  3.225417 )     1.74402226
  WF centre and spread   10  (  1.595000, -0.911348,  3.085166 )     1.63864195
  WF centre and spread   11  (  1.595000, -0.930626,  3.085166 )     1.64013908
  Sum of centres and spreads (  9.569999, -5.525295, 17.211645 )    18.38934046
 
      8    -0.163E-02     0.0529437009       18.3893403228       0.12  <-- CONV
        O_D=      0.0308642 O_OD=      1.0739636 O_TOT=     18.3893403 <-- SPRD
 Delta: O_D= -0.1373249E-03 O_OD= -0.1497114E-02 O_TOT= -0.1634439E-02 <-- DLTA
 ------------------------------------------------------------------------------
 Cycle:      9
  WF centre and spread    1  (  0.000000,  0.000186,  1.564695 )     1.49829816
  WF centre and spread    2  ( -0.000000, -0.045160,  1.564695 )     1.78871543
  WF centre and spread    3  (  0.000000,  0.045681,  1.564695 )     1.78810105
  WF centre and spread    4  (  0.000000, -0.110476,  1.564695 )     1.63500415
  WF centre and spread    5  (  0.000000,  0.109564,  1.564695 )     1.63521741
  WF centre and spread    6  (  1.595000, -0.920554, -0.095920 )     1.74474192
  WF centre and spread    7  (  1.595000, -0.911335,  0.044121 )     1.63788210
  WF centre and spread    8  (  1.595000, -0.930667,  0.044119 )     1.63904399
  WF centre and spread    9  (  1.595000, -0.920554,  3.225310 )     1.74474278
  WF centre and spread   10  (  1.595000, -0.911335,  3.085269 )     1.63788231
  WF centre and spread   11  (  1.595000, -0.930667,  3.085271 )     1.63904420
  Sum of centres and spreads (  9.569999, -5.525317, 17.211645 )    18.38867352
 
      9    -0.667E-03     0.0355199726       18.3886733795       0.13  <-- CONV
        O_D=      0.0308013 O_OD=      1.0733596 O_TOT=     18.3886734 <-- SPRD
 Delta: O_D= -0.6287981E-04 O_OD= -0.6040634E-03 O_TOT= -0.6669433E-03 <-- DLTA
 ------------------------------------------------------------------------------
 Cycle:     10
  WF centre and spread    1  (  0.000000,  0.000191,  1.564695 )     1.49872705
  WF centre and spread    2  ( -0.000000, -0.045163,  1.564695 )     1.78915443
  WF centre and spread    3  (  0.000000,  0.045685,  1.564695 )     1.78870631
  WF centre and spread    4  (  0.000000, -0.110403,  1.564695 )     1.63515475
  WF centre and spread    5  (  0.000000,  0.109471,  1.564695 )     1.63538512
  WF centre and spread    6  (  1.595000, -0.920525, -0.095846 )     1.74526307
  WF centre and spread    7  (  1.595000, -0.911330,  0.044063 )     1.63717357
  WF centre and spread    8  (  1.595000, -0.930698,  0.044059 )     1.63818950
  WF centre and spread    9  (  1.595000, -0.920525,  3.225236 )     1.74526393
  WF centre and spread   10  (  1.595000, -0.911330,  3.085327 )     1.63717378
  WF centre and spread   11  (  1.595000, -0.930698,  3.085331 )     1.63818971
  Sum of centres and spreads (  9.569999, -5.525324, 17.211645 )    18.38838121
 
     10    -0.292E-03     0.0224678341       18.3883810683       0.14  <-- CONV
        O_D=      0.0307499 O_OD=      1.0731187 O_TOT=     18.3883811 <-- SPRD
 Delta: O_D= -0.5138998E-04 O_OD= -0.2409212E-03 O_TOT= -0.2923112E-03 <-- DLTA
 ------------------------------------------------------------------------------
 Cycle:     11
  WF centre and spread    1  (  0.000000,  0.000197,  1.564695 )     1.49913818
  WF centre and spread    2  ( -0.000000, -0.045167,  1.564695 )     1.78956540
  WF centre and spread    3  (  0.000000,  0.045692,  1.564695 )     1.78922225
  WF centre and spread    4  (  0.000000, -0.110348,  1.564695 )     1.63534727
  WF centre and spread    5  (  0.000000,  0.109404,  1.564695 )     1.63558936
  WF centre and spread    6  (  1.595000, -0.920502, -0.095802 )     1.74560053
  WF centre and spread    7  (  1.595000, -0.911328,  0.044032 )     1.63655631
  WF centre and spread    8  (  1.595000, -0.930717,  0.044028 )     1.63753263
  WF centre and spread    9  (  1.595000, -0.920502,  3.225192 )     1.74560139
  WF centre and spread   10  (  1.595000, -0.911328,  3.085358 )     1.63655651
  WF centre and spread   11  (  1.595000, -0.930717,  3.085362 )     1.63753284
  Sum of centres and spreads (  9.569999, -5.525316, 17.211645 )    18.38824267
 
     11    -0.139E-03     0.0158363090       18.3882425349       0.15  <-- CONV
        O_D=      0.0307064 O_OD=      1.0730237 O_TOT=     18.3882425 <-- SPRD
 Delta: O_D= -0.4354990E-04 O_OD= -0.9498350E-04 O_TOT= -0.1385334E-03 <-- DLTA
 ------------------------------------------------------------------------------
 Cycle:     12
  WF centre and spread    1  (  0.000000,  0.000203,  1.564695 )     1.49949536
  WF centre and spread    2  ( -0.000000, -0.045170,  1.564695 )     1.78987021
  WF centre and spread    3  (  0.000000,  0.045693,  1.564695 )     1.78961247
  WF centre and spread    4  (  0.000000, -0.110304,  1.564695 )     1.63550349
  WF centre and spread    5  (  0.000000,  0.109349,  1.564695 )     1.63575954
  WF centre and spread    6  (  1.595000, -0.920483, -0.095777 )     1.74582873
  WF centre and spread    7  (  1.595000, -0.911326,  0.044016 )     1.63609072
  WF centre and spread    8  (  1.595000, -0.930732,  0.044012 )     1.63704923
  WF centre and spread    9  (  1.595000, -0.920483,  3.225167 )     1.74582959
  WF centre and spread   10  (  1.595000, -0.911326,  3.085374 )     1.63609093
  WF centre and spread   11  (  1.595000, -0.930732,  3.085378 )     1.63704943
  Sum of centres and spreads (  9.569999, -5.525311, 17.211645 )    18.38817970
 
     12    -0.630E-04     0.0103426333       18.3881795633       0.16  <-- CONV
        O_D=      0.0306703 O_OD=      1.0729968 O_TOT=     18.3881796 <-- SPRD
 Delta: O_D= -0.3609697E-04 O_OD= -0.2687470E-04 O_TOT= -0.6297167E-04 <-- DLTA
 ------------------------------------------------------------------------------
 Cycle:     13
  WF centre and spread    1  (  0.000000,  0.000204,  1.564695 )     1.49956082
  WF centre and spread    2  ( -0.000000, -0.045170,  1.564695 )     1.78989351
  WF centre and spread    3  (  0.000000,  0.045690,  1.564695 )     1.78965924
  WF centre and spread    4  (  0.000000, -0.110295,  1.564695 )     1.63551100
  WF centre and spread    5  (  0.000000,  0.109337,  1.564695 )     1.63577221
  WF centre and spread    6  (  1.595000, -0.920479, -0.095773 )     1.74587749
  WF centre and spread    7  (  1.595000, -0.911325,  0.044015 )     1.63602243
  WF centre and spread    8  (  1.595000, -0.930736,  0.044011 )     1.63698162
  WF centre and spread    9  (  1.595000, -0.920479,  3.225163 )     1.74587835
  WF centre and spread   10  (  1.595000, -0.911325,  3.085375 )     1.63602264
  WF centre and spread   11  (  1.595000, -0.930736,  3.085379 )     1.63698183
  Sum of centres and spreads (  9.569999, -5.525314, 17.211645 )    18.38816115
 
     13    -0.186E-04     0.0072674432       18.3881610118       0.17  <-- CONV
        O_D=      0.0306652 O_OD=      1.0729833 O_TOT=     18.3881610 <-- SPRD
 Delta: O_D= -0.5041460E-05 O_OD= -0.1351001E-04 O_TOT= -0.1855147E-04 <-- DLTA
 ------------------------------------------------------------------------------
 Cycle:     14
  WF centre and spread    1  (  0.000000,  0.000211,  1.564695 )     1.49976218
  WF centre and spread    2  ( -0.000000, -0.045171,  1.564695 )     1.78998191
  WF centre and spread    3  (  0.000000,  0.045685,  1.564695 )     1.78981201
  WF centre and spread    4  (  0.000000, -0.110269,  1.564695 )     1.63555014
  WF centre and spread    5  (  0.000000,  0.109301,  1.564695 )     1.63582379
  WF centre and spread    6  (  1.595000, -0.920466, -0.095763 )     1.74602170
  WF centre and spread    7  (  1.595000, -0.911321,  0.044011 )     1.63580100
  WF centre and spread    8  (  1.595000, -0.930751,  0.044008 )     1.63678314
  WF centre and spread    9  (  1.595000, -0.920466,  3.225153 )     1.74602256
  WF centre and spread   10  (  1.595000, -0.911321,  3.085379 )     1.63580120
  WF centre and spread   11  (  1.595000, -0.930751,  3.085382 )     1.63678335
  Sum of centres and spreads (  9.569999, -5.525317, 17.211645 )    18.38814297
 
     14    -0.182E-04     0.0047131186       18.3881428274       0.18  <-- CONV
        O_D=      0.0306524 O_OD=      1.0729779 O_TOT=     18.3881428 <-- SPRD
 Delta: O_D= -0.1284407E-04 O_OD= -0.5340342E-05 O_TOT= -0.1818441E-04 <-- DLTA
 ------------------------------------------------------------------------------
 Cycle:     15
  WF centre and spread    1  (  0.000000,  0.000217,  1.564695 )     1.49991272
  WF centre and spread    2  ( -0.000000, -0.045173,  1.564695 )     1.79007134
  WF centre and spread    3  (  0.000000,  0.045684,  1.564695 )     1.78993968
  WF centre and spread    4  (  0.000000, -0.110254,  1.564695 )     1.63559808
  WF centre and spread    5  (  0.000000,  0.109280,  1.564695 )     1.63587445
  WF centre and spread    6  (  1.595000, -0.920455, -0.095759 )     1.74611610
  WF centre and spread    7  (  1.595000, -0.911317,  0.044009 )     1.63561622
  WF centre and spread    8  (  1.595000, -0.930763,  0.044006 )     1.63663626
  WF centre and spread    9  (  1.595000, -0.920455,  3.225149 )     1.74611696
  WF centre and spread   10  (  1.595000, -0.911317,  3.085381 )     1.63561643
  WF centre and spread   11  (  1.595000, -0.930763,  3.085384 )     1.63663647
  Sum of centres and spreads (  9.569999, -5.525315, 17.211645 )    18.38813471
 
     15    -0.825E-05     0.0038423311       18.3881345730       0.19  <-- CONV
        O_D=      0.0306442 O_OD=      1.0729779 O_TOT=     18.3881346 <-- SPRD
 Delta: O_D= -0.8222240E-05 O_OD= -0.3209154E-07 O_TOT= -0.8254332E-05 <-- DLTA
 ------------------------------------------------------------------------------
 Cycle:     16
  WF centre and spread    1  (  0.000000,  0.000226,  1.564695 )     1.50005395
  WF centre and spread    2  ( -0.000000, -0.045176,  1.564695 )     1.79017341
  WF centre and spread    3  (  0.000000,  0.045685,  1.564695 )     1.79007308
  WF centre and spread    4  (  0.000000, -0.110245,  1.564695 )     1.63565462
  WF centre and spread    5  (  0.000000,  0.109263,  1.564695 )     1.63592667
  WF centre and spread    6  (  1.595000, -0.920442, -0.095756 )     1.74619543
  WF centre and spread    7  (  1.595000, -0.911312,  0.044008 )     1.63543593
  WF centre and spread    8  (  1.595000, -0.930779,  0.044004 )     1.63649177
  WF centre and spread    9  (  1.595000, -0.920442,  3.225146 )     1.74619629
  WF centre and spread   10  (  1.595000, -0.911312,  3.085382 )     1.63543614
  WF centre and spread   11  (  1.595000, -0.930779,  3.085386 )     1.63649198
  Sum of centres and spreads (  9.569999, -5.525313, 17.211645 )    18.38812926
 
     16    -0.545E-05     0.0028223518       18.3881291250       0.20  <-- CONV
        O_D=      0.0306369 O_OD=      1.0729798 O_TOT=     18.3881291 <-- SPRD
 Delta: O_D= -0.7282930E-05 O_OD=  0.1834891E-05 O_TOT= -0.5448040E-05 <-- DLTA
 ------------------------------------------------------------------------------
 Cycle:     17
  WF centre and spread    1  (  0.000000,  0.000236,  1.564695 )     1.50016257
  WF centre and spread    2  ( -0.000000, -0.045179,  1.564695 )     1.79025617
  WF centre and spread    3  (  0.000000,  0.045686,  1.564695 )     1.79018289
  WF centre and spread    4  (  0.000000, -0.110242,  1.564695 )     1.63569771
  WF centre and spread    5  (  0.000000,  0.109250,  1.564695 )     1.63596396
  WF centre and spread    6  (  1.595000, -0.920429, -0.095754 )     1.74626088
  WF centre and spread    7  (  1.595000, -0.911308,  0.044007 )     1.63529980
  WF centre and spread    8  (  1.595000, -0.930795,  0.044003 )     1.63636985
  WF centre and spread    9  (  1.595000, -0.920429,  3.225144 )     1.74626174
  WF centre and spread   10  (  1.595000, -0.911308,  3.085383 )     1.63530001
  WF centre and spread   11  (  1.595000, -0.930796,  3.085387 )     1.63637005
  Sum of centres and spreads (  9.569999, -5.525313, 17.211645 )    18.38812564
 
     17    -0.363E-05     0.0024115075       18.3881254964       0.21  <-- CONV
        O_D=      0.0306313 O_OD=      1.0729817 O_TOT=     18.3881255 <-- SPRD
 Delta: O_D= -0.5537719E-05 O_OD=  0.1909092E-05 O_TOT= -0.3628627E-05 <-- DLTA
 ------------------------------------------------------------------------------
 Cycle:     18
  WF centre and spread    1  (  0.000000,  0.000245,  1.564695 )     1.50022783
  WF centre and spread    2  ( -0.000000, -0.045181,  1.564695 )     1.79030490
  WF centre and spread    3  (  0.000000,  0.045687,  1.564695 )     1.79025142
  WF centre and spread    4  (  0.000000, -0.110244,  1.564695 )     1.63572148
  WF centre and spread    5  (  0.000000,  0.109241,  1.564695 )     1.63598431
  WF centre and spread    6  (  1.595000, -0.920416, -0.095751 )     1.74630909
  WF centre and spread    7  (  1.595000, -0.911305,  0.044006 )     1.63521925
  WF centre and spread    8  (  1.595000, -0.930810,  0.044002 )     1.63628775
  WF centre and spread    9  (  1.595000, -0.920416,  3.225141 )     1.74630995
  WF centre and spread   10  (  1.595000, -0.911305,  3.085384 )     1.63521946
  WF centre and spread   11  (  1.595000, -0.930810,  3.085388 )     1.63628796
  Sum of centres and spreads (  9.569999, -5.525314, 17.211645 )    18.38812340
 
     18    -0.223E-05     0.0018902956       18.3881232649       0.22  <-- CONV
        O_D=      0.0306280 O_OD=      1.0729827 O_TOT=     18.3881233 <-- SPRD
 Delta: O_D= -0.3289987E-05 O_OD=  0.1058510E-05 O_TOT= -0.2231477E-05 <-- DLTA
 ------------------------------------------------------------------------------
 Cycle:     19
  WF centre and spread    1  (  0.000000,  0.000248,  1.564695 )     1.50022119
  WF centre and spread    2  ( -0.000000, -0.045180,  1.564695 )     1.79029906
  WF centre and spread    3  (  0.000000,  0.045686,  1.564695 )     1.79024427
  WF centre and spread    4  (  0.000000, -0.110247,  1.564695 )     1.63571918
  WF centre and spread    5  (  0.000000,  0.109241,  1.564695 )     1.63598272
  WF centre and spread    6  (  1.595000, -0.920414, -0.095750 )     1.74630740
  WF centre and spread    7  (  1.595000, -0.911305,  0.044005 )     1.63522788
  WF centre and spread    8  (  1.595000, -0.930812,  0.044001 )     1.63629192
  WF centre and spread    9  (  1.595000, -0.920414,  3.225140 )     1.74630826
  WF centre and spread   10  (  1.595000, -0.911305,  3.085385 )     1.63522808
  WF centre and spread   11  (  1.595000, -0.930812,  3.085389 )     1.63629213
  Sum of centres and spreads (  9.569999, -5.525314, 17.211645 )    18.38812210
 
     19    -0.130E-05     0.0018198778       18.3881219634       0.23  <-- CONV
        O_D=      0.0306286 O_OD=      1.0729809 O_TOT=     18.3881220 <-- SPRD
 Delta: O_D=  0.5046568E-06 O_OD= -0.1806135E-05 O_TOT= -0.1301478E-05 <-- DLTA
 ------------------------------------------------------------------------------
 Cycle:     20
  WF centre and spread    1  (  0.000000,  0.000258,  1.564695 )     1.50019442
  WF centre and spread    2  ( -0.000000, -0.045179,  1.564695 )     1.79027701
  WF centre and spread    3  (  0.000000,  0.045685,  1.564695 )     1.79021737
  WF centre and spread    4  (  0.000000, -0.110259,  1.564695 )     1.63571043
  WF centre and spread    5  (  0.000000,  0.109242,  1.564695 )     1.63597629
  WF centre and spread    6  (  1.595000, -0.920404, -0.095747 )     1.74629902
  WF centre and spread    7  (  1.595000, -0.911306,  0.044003 )     1.63526368
  WF centre and spread    8  (  1.595000, -0.930821,  0.043999 )     1.63630898
  WF centre and spread    9  (  1.595000, -0.920404,  3.225137 )     1.74629989
  WF centre and spread   10  (  1.595000, -0.911306,  3.085387 )     1.63526389
  WF centre and spread   11  (  1.595000, -0.930821,  3.085391 )     1.63630918
  Sum of centres and spreads (  9.569999, -5.525316, 17.211645 )    18.38812017
 
     20    -0.193E-05     0.0013766472       18.3881200313       0.25  <-- CONV
        O_D=      0.0306306 O_OD=      1.0729769 O_TOT=     18.3881200 <-- SPRD
 Delta: O_D=  0.2079711E-05 O_OD= -0.4011780E-05 O_TOT= -0.1932069E-05 <-- DLTA
 ------------------------------------------------------------------------------
 Cycle:     21
  WF centre and spread    1  (  0.000000,  0.000279,  1.564695 )     1.50014055
  WF centre and spread    2  ( -0.000000, -0.045178,  1.564695 )     1.79023779
  WF centre and spread    3  (  0.000000,  0.045684,  1.564695 )     1.79016817
  WF centre and spread    4  (  0.000000, -0.110288,  1.564695 )     1.63569613
  WF centre and spread    5  (  0.000000,  0.109247,  1.564695 )     1.63596520
  WF centre and spread    6  (  1.595000, -0.920382, -0.095743 )     1.74627368
  WF centre and spread    7  (  1.595000, -0.911308,  0.044002 )     1.63533360
  WF centre and spread    8  (  1.595000, -0.930841,  0.043998 )     1.63634676
  WF centre and spread    9  (  1.595000, -0.920382,  3.225133 )     1.74627455
  WF centre and spread   10  (  1.595000, -0.911308,  3.085388 )     1.63533381
  WF centre and spread   11  (  1.595000, -0.930841,  3.085392 )     1.63634697
  Sum of centres and spreads (  9.569999, -5.525319, 17.211645 )    18.38811720
 
     21    -0.297E-05     0.0017180547       18.3881170636       0.26  <-- CONV
        O_D=      0.0306343 O_OD=      1.0729703 O_TOT=     18.3881171 <-- SPRD
 Delta: O_D=  0.3659148E-05 O_OD= -0.6626935E-05 O_TOT= -0.2967788E-05 <-- DLTA
 ------------------------------------------------------------------------------
 Cycle:     22
  WF centre and spread    1  (  0.000000,  0.000335,  1.564695 )     1.50001791
  WF centre and spread    2  ( -0.000000, -0.045178,  1.564695 )     1.79016209
  WF centre and spread    3  (  0.000000,  0.045683,  1.564695 )     1.79006418
  WF centre and spread    4  ( -0.000000, -0.110365,  1.564695 )     1.63567603
  WF centre and spread    5  (  0.000000,  0.109264,  1.564695 )     1.63595234
  WF centre and spread    6  (  1.595000, -0.920323, -0.095741 )     1.74619396
  WF centre and spread    7  (  1.595000, -0.911312,  0.044004 )     1.63547806
  WF centre and spread    8  (  1.595000, -0.930897,  0.044000 )     1.63644625
  WF centre and spread    9  (  1.595000, -0.920323,  3.225131 )     1.74619483
  WF centre and spread   10  (  1.595000, -0.911312,  3.085386 )     1.63547826
  WF centre and spread   11  (  1.595000, -0.930897,  3.085390 )     1.63644645
  Sum of centres and spreads (  9.569999, -5.525325, 17.211645 )    18.38811036
 
     22    -0.685E-05     0.0023152217       18.3881102165       0.27  <-- CONV
        O_D=      0.0306414 O_OD=      1.0729563 O_TOT=     18.3881102 <-- SPRD
 Delta: O_D=  0.7122870E-05 O_OD= -0.1396989E-04 O_TOT= -0.6847023E-05 <-- DLTA
 ------------------------------------------------------------------------------
 Cycle:     23
  WF centre and spread    1  (  0.000000,  0.000458,  1.564695 )     1.49980795
  WF centre and spread    2  ( -0.000000, -0.045178,  1.564695 )     1.79004980
  WF centre and spread    3  (  0.000000,  0.045684,  1.564695 )     1.78989036
  WF centre and spread    4  ( -0.000000, -0.110530,  1.564695 )     1.63565375
  WF centre and spread    5  (  0.000000,  0.109297,  1.564695 )     1.63595089
  WF centre and spread    6  (  1.595000, -0.920192, -0.095742 )     1.74603012
  WF centre and spread    7  (  1.595000, -0.911319,  0.044011 )     1.63570622
  WF centre and spread    8  (  1.595000, -0.931021,  0.044006 )     1.63663470
  WF centre and spread    9  (  1.595000, -0.920192,  3.225133 )     1.74603098
  WF centre and spread   10  (  1.595000, -0.911319,  3.085379 )     1.63570642
  WF centre and spread   11  (  1.595000, -0.931021,  3.085384 )     1.63663491
  Sum of centres and spreads (  9.569999, -5.525331, 17.211645 )    18.38809611
 
     23    -0.142E-04     0.0035473643       18.3880959716       0.28  <-- CONV
        O_D=      0.0306535 O_OD=      1.0729299 O_TOT=     18.3880960 <-- SPRD
 Delta: O_D=  0.1213700E-04 O_OD= -0.2638198E-04 O_TOT= -0.1424498E-04 <-- DLTA
 ------------------------------------------------------------------------------
 Cycle:     24
  WF centre and spread    1  (  0.000000,  0.000615,  1.564695 )     1.49964086
  WF centre and spread    2  ( -0.000000, -0.045178,  1.564695 )     1.78996402
  WF centre and spread    3  (  0.000000,  0.045685,  1.564695 )     1.78974630
  WF centre and spread    4  ( -0.000000, -0.110724,  1.564695 )     1.63561921
  WF centre and spread    5  (  0.000000,  0.109324,  1.564695 )     1.63595390
  WF centre and spread    6  (  1.595000, -0.920021, -0.095749 )     1.74589055
  WF centre and spread    7  (  1.595000, -0.911323,  0.044018 )     1.63589047
  WF centre and spread    8  (  1.595000, -0.931187,  0.044012 )     1.63679546
  WF centre and spread    9  (  1.595000, -0.920021,  3.225139 )     1.74589141
  WF centre and spread   10  (  1.595000, -0.911322,  3.085372 )     1.63589068
  WF centre and spread   11  (  1.595000, -0.931187,  3.085378 )     1.63679567
  Sum of centres and spreads (  9.569999, -5.525339, 17.211645 )    18.38807852
 
     24    -0.176E-04     0.0044241458       18.3880783840       0.29  <-- CONV
        O_D=      0.0306639 O_OD=      1.0729020 O_TOT=     18.3880784 <-- SPRD
 Delta: O_D=  0.1030255E-04 O_OD= -0.2789013E-04 O_TOT= -0.1758757E-04 <-- DLTA
 ------------------------------------------------------------------------------
 Cycle:     25
  WF centre and spread    1  (  0.000000,  0.000617,  1.564695 )     1.49969388
  WF centre and spread    2  ( -0.000000, -0.045178,  1.564695 )     1.78998488
  WF centre and spread    3  (  0.000000,  0.045684,  1.564695 )     1.78978493
  WF centre and spread    4  ( -0.000000, -0.110717,  1.564695 )     1.63560524
  WF centre and spread    5  (  0.000000,  0.109314,  1.564695 )     1.63594400
  WF centre and spread    6  (  1.595000, -0.920017, -0.095750 )     1.74594142
  WF centre and spread    7  (  1.595000, -0.911320,  0.044016 )     1.63583451
  WF centre and spread    8  (  1.595000, -0.931193,  0.044011 )     1.63674881
  WF centre and spread    9  (  1.595000, -0.920017,  3.225140 )     1.74594228
  WF centre and spread   10  (  1.595000, -0.911320,  3.085374 )     1.63583472
  WF centre and spread   11  (  1.595000, -0.931193,  3.085379 )     1.63674902
  Sum of centres and spreads (  9.569999, -5.525341, 17.211645 )    18.38806369
 
     25    -0.148E-04     0.0063653746       18.3880635514       0.30  <-- CONV
        O_D=      0.0306609 O_OD=      1.0728902 O_TOT=     18.3880636 <-- SPRD
 Delta: O_D= -0.2991635E-05 O_OD= -0.1184096E-04 O_TOT= -0.1483259E-04 <-- DLTA
 ------------------------------------------------------------------------------
 Cycle:     26
  WF centre and spread    1  (  0.000000,  0.000624,  1.564695 )     1.49984923
  WF centre and spread    2  ( -0.000000, -0.045177,  1.564695 )     1.79005621
  WF centre and spread    3  (  0.000000,  0.045683,  1.564695 )     1.78990236
  WF centre and spread    4  ( -0.000000, -0.110700,  1.564695 )     1.63558273
  WF centre and spread    5  (  0.000000,  0.109288,  1.564695 )     1.63593043
  WF centre and spread    6  (  1.595000, -0.920005, -0.095751 )     1.74607583
  WF centre and spread    7  (  1.595000, -0.911314,  0.044013 )     1.63566512
  WF centre and spread    8  (  1.595000, -0.931211,  0.044008 )     1.63662263
  WF centre and spread    9  (  1.595000, -0.920005,  3.225141 )     1.74607669
  WF centre and spread   10  (  1.595000, -0.911314,  3.085377 )     1.63566532
  WF centre and spread   11  (  1.595000, -0.931211,  3.085382 )     1.63662284
  Sum of centres and spreads (  9.569999, -5.525342, 17.211645 )    18.38804939
 
     26    -0.143E-04     0.0042812607       18.3880492526       0.31  <-- CONV
        O_D=      0.0306544 O_OD=      1.0728824 O_TOT=     18.3880493 <-- SPRD
 Delta: O_D= -0.6492237E-05 O_OD= -0.7806550E-05 O_TOT= -0.1429879E-04 <-- DLTA
 ------------------------------------------------------------------------------
 Cycle:     27
  WF centre and spread    1  (  0.000000,  0.000631,  1.564695 )     1.49997687
  WF centre and spread    2  ( -0.000000, -0.045178,  1.564695 )     1.79012838
  WF centre and spread    3  (  0.000000,  0.045683,  1.564695 )     1.79000425
  WF centre and spread    4  ( -0.000000, -0.110691,  1.564695 )     1.63558588
  WF centre and spread    5  (  0.000000,  0.109271,  1.564695 )     1.63593553
  WF centre and spread    6  (  1.595000, -0.919994, -0.095754 )     1.74616134
  WF centre and spread    7  (  1.595000, -0.911309,  0.044010 )     1.63551761
  WF centre and spread    8  (  1.595000, -0.931224,  0.044006 )     1.63652621
  WF centre and spread    9  (  1.595000, -0.919994,  3.225144 )     1.74616220
  WF centre and spread   10  (  1.595000, -0.911309,  3.085380 )     1.63551782
  WF centre and spread   11  (  1.595000, -0.931224,  3.085384 )     1.63652642
  Sum of centres and spreads (  9.569999, -5.525339, 17.211645 )    18.38804251
 
     27    -0.688E-05     0.0034809006       18.3880423708       0.32  <-- CONV
        O_D=      0.0306491 O_OD=      1.0728808 O_TOT=     18.3880424 <-- SPRD
 Delta: O_D= -0.5259790E-05 O_OD= -0.1622033E-05 O_TOT= -0.6881823E-05 <-- DLTA
 ------------------------------------------------------------------------------
 Cycle:     28
  WF centre and spread    1  (  0.000000,  0.000639,  1.564695 )     1.50008109
  WF centre and spread    2  ( -0.000000, -0.045179,  1.564695 )     1.79019511
  WF centre and spread    3  (  0.000000,  0.045685,  1.564695 )     1.79009179
  WF centre and spread    4  ( -0.000000, -0.110688,  1.564695 )     1.63560020
  WF centre and spread    5  (  0.000000,  0.109260,  1.564695 )     1.63594633
  WF centre and spread    6  (  1.595000, -0.919984, -0.095757 )     1.74621471
  WF centre and spread    7  (  1.595000, -0.911306,  0.044009 )     1.63539993
  WF centre and spread    8  (  1.595000, -0.931237,  0.044004 )     1.63644680
  WF centre and spread    9  (  1.595000, -0.919984,  3.225147 )     1.74621557
  WF centre and spread   10  (  1.595000, -0.911306,  3.085381 )     1.63540014
  WF centre and spread   11  (  1.595000, -0.931237,  3.085386 )     1.63644701
  Sum of centres and spreads (  9.569999, -5.525337, 17.211645 )    18.38803867
 
     28    -0.384E-05     0.0025430900       18.3880385347       0.33  <-- CONV
        O_D=      0.0306441 O_OD=      1.0728819 O_TOT=     18.3880385 <-- SPRD
 Delta: O_D= -0.5013399E-05 O_OD=  0.1177332E-05 O_TOT= -0.3836067E-05 <-- DLTA
 ------------------------------------------------------------------------------
 Cycle:     29
  WF centre and spread    1  (  0.000000,  0.000647,  1.564695 )     1.50016584
  WF centre and spread    2  ( -0.000000, -0.045181,  1.564695 )     1.79025041
  WF centre and spread    3  (  0.000000,  0.045686,  1.564695 )     1.79016488
  WF centre and spread    4  ( -0.000000, -0.110690,  1.564695 )     1.63561394
  WF centre and spread    5  (  0.000000,  0.109253,  1.564695 )     1.63595396
  WF centre and spread    6  (  1.595000, -0.919973, -0.095757 )     1.74625538
  WF centre and spread    7  (  1.595000, -0.911303,  0.044008 )     1.63531223
  WF centre and spread    8  (  1.595000, -0.931251,  0.044003 )     1.63637533
  WF centre and spread    9  (  1.595000, -0.919973,  3.225147 )     1.74625624
  WF centre and spread   10  (  1.595000, -0.911303,  3.085382 )     1.63531244
  WF centre and spread   11  (  1.595000, -0.931251,  3.085387 )     1.63637554
  Sum of centres and spreads (  9.569999, -5.525337, 17.211645 )    18.38803618
 
     29    -0.249E-05     0.0019479147       18.3880360448       0.34  <-- CONV
        O_D=      0.0306396 O_OD=      1.0728840 O_TOT=     18.3880360 <-- SPRD
 Delta: O_D= -0.4538267E-05 O_OD=  0.2048372E-05 O_TOT= -0.2489895E-05 <-- DLTA
 ------------------------------------------------------------------------------
 Cycle:     30
  WF centre and spread    1  (  0.000000,  0.000657,  1.564695 )     1.50022887
  WF centre and spread    2  ( -0.000000, -0.045181,  1.564695 )     1.79028888
  WF centre and spread    3  (  0.000000,  0.045687,  1.564695 )     1.79021823
  WF centre and spread    4  ( -0.000000, -0.110694,  1.564695 )     1.63562440
  WF centre and spread    5  (  0.000000,  0.109247,  1.564695 )     1.63595867
  WF centre and spread    6  (  1.595000, -0.919960, -0.095755 )     1.74628981
  WF centre and spread    7  (  1.595000, -0.911302,  0.044006 )     1.63525183
  WF centre and spread    8  (  1.595000, -0.931264,  0.044002 )     1.63631541
  WF centre and spread    9  (  1.595000, -0.919960,  3.225145 )     1.74629067
  WF centre and spread   10  (  1.595000, -0.911302,  3.085384 )     1.63525204
  WF centre and spread   11  (  1.595000, -0.931264,  3.085388 )     1.63631562
  Sum of centres and spreads (  9.569999, -5.525338, 17.211645 )    18.38803443
 
     30    -0.175E-05     0.0016336129       18.3880342912       0.35  <-- CONV
        O_D=      0.0306361 O_OD=      1.0728857 O_TOT=     18.3880343 <-- SPRD
 Delta: O_D= -0.3424847E-05 O_OD=  0.1671215E-05 O_TOT= -0.1753632E-05 <-- DLTA
 ------------------------------------------------------------------------------
 Cycle:     31
  WF centre and spread    1  (  0.000000,  0.000659,  1.564695 )     1.50022476
  WF centre and spread    2  ( -0.000000, -0.045181,  1.564695 )     1.79028435
  WF centre and spread    3  (  0.000000,  0.045686,  1.564695 )     1.79021314
  WF centre and spread    4  ( -0.000000, -0.110697,  1.564695 )     1.63562477
  WF centre and spread    5  (  0.000000,  0.109246,  1.564695 )     1.63595934
  WF centre and spread    6  (  1.595000, -0.919958, -0.095753 )     1.74628960
  WF centre and spread    7  (  1.595000, -0.911302,  0.044005 )     1.63525755
  WF centre and spread    8  (  1.595000, -0.931266,  0.044001 )     1.63631554
  WF centre and spread    9  (  1.595000, -0.919958,  3.225143 )     1.74629046
  WF centre and spread   10  (  1.595000, -0.911302,  3.085385 )     1.63525776
  WF centre and spread   11  (  1.595000, -0.931266,  3.085389 )     1.63631575
  Sum of centres and spreads (  9.569999, -5.525338, 17.211645 )    18.38803302
 
     31    -0.141E-05     0.0018460651       18.3880328784       0.36  <-- CONV
        O_D=      0.0306364 O_OD=      1.0728840 O_TOT=     18.3880329 <-- SPRD
 Delta: O_D=  0.2781019E-06 O_OD= -0.1690882E-05 O_TOT= -0.1412781E-05 <-- DLTA
 ------------------------------------------------------------------------------
 Cycle:     32
  WF centre and spread    1  (  0.000000,  0.000668,  1.564695 )     1.50020972
  WF centre and spread    2  ( -0.000000, -0.045180,  1.564695 )     1.79027031
  WF centre and spread    3  (  0.000000,  0.045685,  1.564695 )     1.79019726
  WF centre and spread    4  ( -0.000000, -0.110706,  1.564695 )     1.63562572
  WF centre and spread    5  (  0.000000,  0.109245,  1.564695 )     1.63596129
  WF centre and spread    6  (  1.595000, -0.919948, -0.095749 )     1.74628701
  WF centre and spread    7  (  1.595000, -0.911303,  0.044003 )     1.63527894
  WF centre and spread    8  (  1.595000, -0.931274,  0.043999 )     1.63631685
  WF centre and spread    9  (  1.595000, -0.919948,  3.225139 )     1.74628787
  WF centre and spread   10  (  1.595000, -0.911303,  3.085387 )     1.63527914
  WF centre and spread   11  (  1.595000, -0.931274,  3.085391 )     1.63631706
  Sum of centres and spreads (  9.569999, -5.525339, 17.211645 )    18.38803117
 
     32    -0.185E-05     0.0014342204       18.3880310269       0.37  <-- CONV
        O_D=      0.0306375 O_OD=      1.0728810 O_TOT=     18.3880310 <-- SPRD
 Delta: O_D=  0.1090280E-05 O_OD= -0.2941787E-05 O_TOT= -0.1851507E-05 <-- DLTA
 ------------------------------------------------------------------------------
 Cycle:     33
  WF centre and spread    1  (  0.000000,  0.000686,  1.564695 )     1.50017820
  WF centre and spread    2  ( -0.000000, -0.045180,  1.564695 )     1.79024812
  WF centre and spread    3  (  0.000000,  0.045684,  1.564695 )     1.79017051
  WF centre and spread    4  ( -0.000000, -0.110728,  1.564695 )     1.63562862
  WF centre and spread    5  (  0.000000,  0.109247,  1.564695 )     1.63596608
  WF centre and spread    6  (  1.595000, -0.919929, -0.095743 )     1.74627351
  WF centre and spread    7  (  1.595000, -0.911305,  0.044001 )     1.63532010
  WF centre and spread    8  (  1.595000, -0.931291,  0.043997 )     1.63632426
  WF centre and spread    9  (  1.595000, -0.919929,  3.225133 )     1.74627438
  WF centre and spread   10  (  1.595000, -0.911305,  3.085389 )     1.63532030
  WF centre and spread   11  (  1.595000, -0.931291,  3.085393 )     1.63632447
  Sum of centres and spreads (  9.569999, -5.525342, 17.211645 )    18.38802855
 
     33    -0.262E-05     0.0016144270       18.3880284084       0.38  <-- CONV
        O_D=      0.0306393 O_OD=      1.0728767 O_TOT=     18.3880284 <-- SPRD
 Delta: O_D=  0.1757908E-05 O_OD= -0.4376419E-05 O_TOT= -0.2618511E-05 <-- DLTA
 ------------------------------------------------------------------------------
 Cycle:     34
  WF centre and spread    1  (  0.000000,  0.000729,  1.564695 )     1.50011120
  WF centre and spread    2  ( -0.000000, -0.045180,  1.564695 )     1.79021346
  WF centre and spread    3  (  0.000000,  0.045682,  1.564695 )     1.79012189
  WF centre and spread    4  ( -0.000000, -0.110783,  1.564695 )     1.63564291
  WF centre and spread    5  (  0.000000,  0.109256,  1.564695 )     1.63598573
  WF centre and spread    6  (  1.595000, -0.919882, -0.095735 )     1.74622794
  WF centre and spread    7  (  1.595000, -0.911308,  0.044001 )     1.63539351
  WF centre and spread    8  (  1.595000, -0.931335,  0.043996 )     1.63635188
  WF centre and spread    9  (  1.595000, -0.919882,  3.225125 )     1.74622880
  WF centre and spread   10  (  1.595000, -0.911308,  3.085389 )     1.63539372
  WF centre and spread   11  (  1.595000, -0.931335,  3.085394 )     1.63635209
  Sum of centres and spreads (  9.569999, -5.525347, 17.211645 )    18.38802312
 
     34    -0.543E-05     0.0021682353       18.3880229783       0.39  <-- CONV
        O_D=      0.0306424 O_OD=      1.0728680 O_TOT=     18.3880230 <-- SPRD
 Delta: O_D=  0.3179317E-05 O_OD= -0.8609421E-05 O_TOT= -0.5430103E-05 <-- DLTA
 ------------------------------------------------------------------------------
 Cycle:     35
  WF centre and spread    1  (  0.000000,  0.000833,  1.564695 )     1.49999057
  WF centre and spread    2  ( -0.000000, -0.045182,  1.564695 )     1.79016707
  WF centre and spread    3  (  0.000000,  0.045683,  1.564695 )     1.79004019
  WF centre and spread    4  ( -0.000000, -0.110913,  1.564695 )     1.63567869
  WF centre and spread    5  (  0.000000,  0.109275,  1.564695 )     1.63603981
  WF centre and spread    6  (  1.595000, -0.919770, -0.095728 )     1.74612302
  WF centre and spread    7  (  1.595000, -0.911313,  0.044004 )     1.63550465
  WF centre and spread    8  (  1.595000, -0.931441,  0.043997 )     1.63641907
  WF centre and spread    9  (  1.595000, -0.919770,  3.225118 )     1.74612388
  WF centre and spread   10  (  1.595000, -0.911313,  3.085386 )     1.63550486
  WF centre and spread   11  (  1.595000, -0.931441,  3.085393 )     1.63641928
  Sum of centres and spreads (  9.569999, -5.525353, 17.211645 )    18.38801108
 
     35    -0.120E-04     0.0031284363       18.3880109359       0.40  <-- CONV
        O_D=      0.0306489 O_OD=      1.0728495 O_TOT=     18.3880109 <-- SPRD
 Delta: O_D=  0.6475372E-05 O_OD= -0.1851772E-04 O_TOT= -0.1204235E-04 <-- DLTA
 ------------------------------------------------------------------------------
 Cycle:     36
  WF centre and spread    1  (  0.000000,  0.000972,  1.564695 )     1.49988961
  WF centre and spread    2  ( -0.000000, -0.045184,  1.564695 )     1.79013063
  WF centre and spread    3  (  0.000000,  0.045684,  1.564695 )     1.78996730
  WF centre and spread    4  ( -0.000000, -0.111078,  1.564695 )     1.63569032
  WF centre and spread    5  (  0.000000,  0.109291,  1.564695 )     1.63608648
  WF centre and spread    6  (  1.595000, -0.919617, -0.095726 )     1.74603224
  WF centre and spread    7  (  1.595000, -0.911314,  0.044009 )     1.63559733
  WF centre and spread    8  (  1.595000, -0.931592,  0.044000 )     1.63648531
  WF centre and spread    9  (  1.595000, -0.919617,  3.225117 )     1.74603310
  WF centre and spread   10  (  1.595000, -0.911314,  3.085381 )     1.63559754
  WF centre and spread   11  (  1.595000, -0.931592,  3.085390 )     1.63648551
  Sum of centres and spreads (  9.569999, -5.525360, 17.211645 )    18.38799537
 
     36    -0.157E-04     0.0041955711       18.3879952309       0.41  <-- CONV
        O_D=      0.0306557 O_OD=      1.0728271 O_TOT=     18.3879952 <-- SPRD
 Delta: O_D=  0.6756326E-05 O_OD= -0.2246136E-04 O_TOT= -0.1570503E-04 <-- DLTA
 ------------------------------------------------------------------------------
 Cycle:     37
  WF centre and spread    1  (  0.000000,  0.000975,  1.564695 )     1.49992344
  WF centre and spread    2  ( -0.000000, -0.045184,  1.564695 )     1.79013745
  WF centre and spread    3  (  0.000000,  0.045683,  1.564695 )     1.78998486
  WF centre and spread    4  ( -0.000000, -0.111074,  1.564695 )     1.63566057
  WF centre and spread    5  (  0.000000,  0.109285,  1.564695 )     1.63606158
  WF centre and spread    6  (  1.595000, -0.919613, -0.095729 )     1.74607027
  WF centre and spread    7  (  1.595000, -0.911312,  0.044008 )     1.63556763
  WF centre and spread    8  (  1.595000, -0.931598,  0.044000 )     1.63646788
  WF centre and spread    9  (  1.595000, -0.919613,  3.225119 )     1.74607114
  WF centre and spread   10  (  1.595000, -0.911312,  3.085382 )     1.63556784
  WF centre and spread   11  (  1.595000, -0.931598,  3.085389 )     1.63646808
  Sum of centres and spreads (  9.569999, -5.525362, 17.211645 )    18.38798074
 
     37    -0.146E-04     0.0063060438       18.3879805975       0.42  <-- CONV
        O_D=      0.0306536 O_OD=      1.0728145 O_TOT=     18.3879806 <-- SPRD
 Delta: O_D= -0.2051050E-05 O_OD= -0.1258239E-04 O_TOT= -0.1463344E-04 <-- DLTA
 ------------------------------------------------------------------------------
 Cycle:     38
  WF centre and spread    1  (  0.000000,  0.000981,  1.564695 )     1.50001212
  WF centre and spread    2  ( -0.000000, -0.045182,  1.564695 )     1.79016317
  WF centre and spread    3  (  0.000000,  0.045682,  1.564695 )     1.79003486
  WF centre and spread    4  ( -0.000000, -0.111067,  1.564695 )     1.63560114
  WF centre and spread    5  (  0.000000,  0.109270,  1.564695 )     1.63601233
  WF centre and spread    6  (  1.595000, -0.919604, -0.095737 )     1.74615542
  WF centre and spread    7  (  1.595000, -0.911308,  0.044008 )     1.63548610
  WF centre and spread    8  (  1.595000, -0.931611,  0.044001 )     1.63643028
  WF centre and spread    9  (  1.595000, -0.919604,  3.225127 )     1.74615628
  WF centre and spread   10  (  1.595000, -0.911308,  3.085382 )     1.63548631
  WF centre and spread   11  (  1.595000, -0.931611,  3.085389 )     1.63643048
  Sum of centres and spreads (  9.569999, -5.525362, 17.211645 )    18.38796849
 
     38    -0.122E-04     0.0041682011       18.3879683540       0.43  <-- CONV
        O_D=      0.0306507 O_OD=      1.0728052 O_TOT=     18.3879684 <-- SPRD
 Delta: O_D= -0.2958203E-05 O_OD= -0.9285282E-05 O_TOT= -0.1224349E-04 <-- DLTA
 ------------------------------------------------------------------------------
 Cycle:     39
  WF centre and spread    1  (  0.000000,  0.000987,  1.564695 )     1.50008638
  WF centre and spread    2  ( -0.000000, -0.045182,  1.564695 )     1.79019443
  WF centre and spread    3  (  0.000000,  0.045683,  1.564695 )     1.79008120
  WF centre and spread    4  ( -0.000000, -0.111065,  1.564695 )     1.63557183
  WF centre and spread    5  (  0.000000,  0.109261,  1.564695 )     1.63598771
  WF centre and spread    6  (  1.595000, -0.919596, -0.095745 )     1.74620423
  WF centre and spread    7  (  1.595000, -0.911304,  0.044008 )     1.63541130
  WF centre and spread    8  (  1.595000, -0.931622,  0.044001 )     1.63640458
  WF centre and spread    9  (  1.595000, -0.919596,  3.225135 )     1.74620509
  WF centre and spread   10  (  1.595000, -0.911304,  3.085382 )     1.63541150
  WF centre and spread   11  (  1.595000, -0.931622,  3.085389 )     1.63640479
  Sum of centres and spreads (  9.569999, -5.525360, 17.211645 )    18.38796304
 
     39    -0.546E-05     0.0031091444       18.3879628974       0.44  <-- CONV
        O_D=      0.0306482 O_OD=      1.0728022 O_TOT=     18.3879629 <-- SPRD
 Delta: O_D= -0.2442971E-05 O_OD= -0.3013573E-05 O_TOT= -0.5456544E-05 <-- DLTA
 ------------------------------------------------------------------------------
 Cycle:     40
  WF centre and spread    1  (  0.000000,  0.000993,  1.564695 )     1.50014521
  WF centre and spread    2  ( -0.000000, -0.045182,  1.564695 )     1.79022431
  WF centre and spread    3  (  0.000000,  0.045684,  1.564695 )     1.79012108
  WF centre and spread    4  ( -0.000000, -0.111067,  1.564695 )     1.63555794
  WF centre and spread    5  (  0.000000,  0.109257,  1.564695 )     1.63597430
  WF centre and spread    6  (  1.595000, -0.919588, -0.095750 )     1.74623001
  WF centre and spread    7  (  1.595000, -0.911302,  0.044008 )     1.63535417
  WF centre and spread    8  (  1.595000, -0.931632,  0.044001 )     1.63638389
  WF centre and spread    9  (  1.595000, -0.919588,  3.225140 )     1.74623087
  WF centre and spread   10  (  1.595000, -0.911302,  3.085382 )     1.63535438
  WF centre and spread   11  (  1.595000, -0.931632,  3.085389 )     1.63638409
  Sum of centres and spreads (  9.569999, -5.525359, 17.211645 )    18.38796026
 
     40    -0.278E-05     0.0022196663       18.3879601194       0.45  <-- CONV
        O_D=      0.0306457 O_OD=      1.0728019 O_TOT=     18.3879601 <-- SPRD
 Delta: O_D= -0.2506660E-05 O_OD= -0.2713802E-06 O_TOT= -0.2778041E-05 <-- DLTA
 ------------------------------------------------------------------------------
 Cycle:     41
  WF centre and spread    1  (  0.000000,  0.001001,  1.564695 )     1.50019986
  WF centre and spread    2  ( -0.000000, -0.045183,  1.564695 )     1.79025317
  WF centre and spread    3  (  0.000000,  0.045685,  1.564695 )     1.79015971
  WF centre and spread    4  ( -0.000000, -0.111074,  1.564695 )     1.63554687
  WF centre and spread    5  (  0.000000,  0.109254,  1.564695 )     1.63596118
  WF centre and spread    6  (  1.595000, -0.919578, -0.095754 )     1.74625079
  WF centre and spread    7  (  1.595000, -0.911300,  0.044008 )     1.63530831
  WF centre and spread    8  (  1.595000, -0.931644,  0.044001 )     1.63635902
  WF centre and spread    9  (  1.595000, -0.919578,  3.225144 )     1.74625165
  WF centre and spread   10  (  1.595000, -0.911300,  3.085382 )     1.63530852
  WF centre and spread   11  (  1.595000, -0.931644,  3.085389 )     1.63635923
  Sum of centres and spreads (  9.569999, -5.525358, 17.211645 )    18.38795832
 
     41    -0.194E-05     0.0016503748       18.3879581833       0.47  <-- CONV
        O_D=      0.0306429 O_OD=      1.0728027 O_TOT=     18.3879582 <-- SPRD
 Delta: O_D= -0.2766514E-05 O_OD=  0.8304058E-06 O_TOT= -0.1936108E-05 <-- DLTA
 ------------------------------------------------------------------------------
 Cycle:     42
  WF centre and spread    1  (  0.000000,  0.001011,  1.564695 )     1.50024699
  WF centre and spread    2  ( -0.000000, -0.045183,  1.564695 )     1.79027626
  WF centre and spread    3  (  0.000000,  0.045686,  1.564695 )     1.79019231
  WF centre and spread    4  ( -0.000000, -0.111082,  1.564695 )     1.63553759
  WF centre and spread    5  (  0.000000,  0.109251,  1.564695 )     1.63594904
  WF centre and spread    6  (  1.595000, -0.919565, -0.095754 )     1.74627198
  WF centre and spread    7  (  1.595000, -0.911299,  0.044007 )     1.63527347
  WF centre and spread    8  (  1.595000, -0.931657,  0.044000 )     1.63633122
  WF centre and spread    9  (  1.595000, -0.919565,  3.225144 )     1.74627284
  WF centre and spread   10  (  1.595000, -0.911299,  3.085383 )     1.63527368
  WF centre and spread   11  (  1.595000, -0.931657,  3.085390 )     1.63633142
  Sum of centres and spreads (  9.569999, -5.525358, 17.211645 )    18.38795679
 
     42    -0.153E-05     0.0014996593       18.3879566511       0.48  <-- CONV
        O_D=      0.0306405 O_OD=      1.0728036 O_TOT=     18.3879567 <-- SPRD
 Delta: O_D= -0.2399118E-05 O_OD=  0.8669757E-06 O_TOT= -0.1532142E-05 <-- DLTA
 ------------------------------------------------------------------------------
 Cycle:     43
  WF centre and spread    1  (  0.000000,  0.001014,  1.564695 )     1.50024449
  WF centre and spread    2  ( -0.000000, -0.045182,  1.564695 )     1.79027338
  WF centre and spread    3  (  0.000000,  0.045686,  1.564695 )     1.79018935
  WF centre and spread    4  ( -0.000000, -0.111084,  1.564695 )     1.63553874
  WF centre and spread    5  (  0.000000,  0.109250,  1.564695 )     1.63595027
  WF centre and spread    6  (  1.595000, -0.919562, -0.095753 )     1.74627328
  WF centre and spread    7  (  1.595000, -0.911300,  0.044006 )     1.63527702
  WF centre and spread    8  (  1.595000, -0.931659,  0.043999 )     1.63632863
  WF centre and spread    9  (  1.595000, -0.919562,  3.225143 )     1.74627414
  WF centre and spread   10  (  1.595000, -0.911300,  3.085384 )     1.63527723
  WF centre and spread   11  (  1.595000, -0.931659,  3.085391 )     1.63632883
  Sum of centres and spreads (  9.569999, -5.525359, 17.211645 )    18.38795537
 
     43    -0.142E-05     0.0018354834       18.3879552282       0.49  <-- CONV
        O_D=      0.0306407 O_OD=      1.0728021 O_TOT=     18.3879552 <-- SPRD
 Delta: O_D=  0.1337489E-06 O_OD= -0.1556695E-05 O_TOT= -0.1422946E-05 <-- DLTA
 ------------------------------------------------------------------------------
 Cycle:     44
  WF centre and spread    1  (  0.000000,  0.001022,  1.564695 )     1.50023529
  WF centre and spread    2  ( -0.000000, -0.045182,  1.564695 )     1.79026526
  WF centre and spread    3  (  0.000000,  0.045685,  1.564695 )     1.79018088
  WF centre and spread    4  ( -0.000000, -0.111092,  1.564695 )     1.63554227
  WF centre and spread    5  (  0.000000,  0.109248,  1.564695 )     1.63595419
  WF centre and spread    6  (  1.595000, -0.919553, -0.095748 )     1.74627533
  WF centre and spread    7  (  1.595000, -0.911301,  0.044003 )     1.63529020
  WF centre and spread    8  (  1.595000, -0.931667,  0.043996 )     1.63632168
  WF centre and spread    9  (  1.595000, -0.919553,  3.225138 )     1.74627619
  WF centre and spread   10  (  1.595000, -0.911301,  3.085387 )     1.63529041
  WF centre and spread   11  (  1.595000, -0.931667,  3.085394 )     1.63632189
  Sum of centres and spreads (  9.569999, -5.525360, 17.211645 )    18.38795359
 
     44    -0.178E-05     0.0014428154       18.3879534471       0.50  <-- CONV
        O_D=      0.0306413 O_OD=      1.0727996 O_TOT=     18.3879534 <-- SPRD
 Delta: O_D=  0.6201110E-06 O_OD= -0.2401213E-05 O_TOT= -0.1781102E-05 <-- DLTA
 ------------------------------------------------------------------------------
 Cycle:     45
  WF centre and spread    1  (  0.000000,  0.001039,  1.564695 )     1.50021469
  WF centre and spread    2  ( -0.000000, -0.045181,  1.564695 )     1.79025352
  WF centre and spread    3  (  0.000000,  0.045684,  1.564695 )     1.79016717
  WF centre and spread    4  ( -0.000000, -0.111111,  1.564695 )     1.63555035
  WF centre and spread    5  (  0.000000,  0.109248,  1.564695 )     1.63596354
  WF centre and spread    6  (  1.595000, -0.919535, -0.095741 )     1.74627032
  WF centre and spread    7  (  1.595000, -0.911302,  0.044001 )     1.63531611
  WF centre and spread    8  (  1.595000, -0.931683,  0.043994 )     1.63631382
  WF centre and spread    9  (  1.595000, -0.919535,  3.225131 )     1.74627118
  WF centre and spread   10  (  1.595000, -0.911302,  3.085389 )     1.63531632
  WF centre and spread   11  (  1.595000, -0.931683,  3.085396 )     1.63631403
  Sum of centres and spreads (  9.569999, -5.525362, 17.211645 )    18.38795107
 
     45    -0.252E-05     0.0015680315       18.3879509292       0.51  <-- CONV
        O_D=      0.0306422 O_OD=      1.0727962 O_TOT=     18.3879509 <-- SPRD
 Delta: O_D=  0.9087889E-06 O_OD= -0.3426643E-05 O_TOT= -0.2517855E-05 <-- DLTA
 ------------------------------------------------------------------------------
 Cycle:     46
  WF centre and spread    1  (  0.000000,  0.001079,  1.564695 )     1.50017329
  WF centre and spread    2  ( -0.000000, -0.045181,  1.564695 )     1.79023951
  WF centre and spread    3  (  0.000000,  0.045683,  1.564695 )     1.79014553
  WF centre and spread    4  ( -0.000000, -0.111160,  1.564695 )     1.63557362
  WF centre and spread    5  (  0.000000,  0.109253,  1.564695 )     1.63599151
  WF centre and spread    6  (  1.595000, -0.919490, -0.095731 )     1.74624339
  WF centre and spread    7  (  1.595000, -0.911305,  0.043999 )     1.63535740
  WF centre and spread    8  (  1.595000, -0.931724,  0.043991 )     1.63630985
  WF centre and spread    9  (  1.595000, -0.919490,  3.225121 )     1.74624425
  WF centre and spread   10  (  1.595000, -0.911305,  3.085391 )     1.63535761
  WF centre and spread   11  (  1.595000, -0.931724,  3.085399 )     1.63631006
  Sum of centres and spreads (  9.569999, -5.525367, 17.211645 )    18.38794601
 
     46    -0.506E-05     0.0021240695       18.3879458720       0.52  <-- CONV
        O_D=      0.0306437 O_OD=      1.0727897 O_TOT=     18.3879459 <-- SPRD
 Delta: O_D=  0.1470254E-05 O_OD= -0.6527537E-05 O_TOT= -0.5057282E-05 <-- DLTA
 ------------------------------------------------------------------------------
 Cycle:     47
  WF centre and spread    1  (  0.000000,  0.001176,  1.564695 )     1.50010343
  WF centre and spread    2  ( -0.000000, -0.045183,  1.564695 )     1.79022852
  WF centre and spread    3  (  0.000000,  0.045683,  1.564695 )     1.79011329
  WF centre and spread    4  ( -0.000000, -0.111276,  1.564695 )     1.63562398
  WF centre and spread    5  (  0.000000,  0.109264,  1.564695 )     1.63605947
  WF centre and spread    6  (  1.595000, -0.919383, -0.095719 )     1.74617345
  WF centre and spread    7  (  1.595000, -0.911309,  0.043997 )     1.63541046
  WF centre and spread    8  (  1.595000, -0.931827,  0.043987 )     1.63631840
  WF centre and spread    9  (  1.595000, -0.919383,  3.225109 )     1.74617431
  WF centre and spread   10  (  1.595000, -0.911309,  3.085392 )     1.63541066
  WF centre and spread   11  (  1.595000, -0.931827,  3.085403 )     1.63631861
  Sum of centres and spreads (  9.569999, -5.525372, 17.211645 )    18.38793458
 
     47    -0.114E-04     0.0030029233       18.3879344356       0.53  <-- CONV
        O_D=      0.0306470 O_OD=      1.0727749 O_TOT=     18.3879344 <-- SPRD
 Delta: O_D=  0.3338429E-05 O_OD= -0.1477480E-04 O_TOT= -0.1143637E-04 <-- DLTA
 ------------------------------------------------------------------------------
 Cycle:     48
  WF centre and spread    1  (  0.000000,  0.001306,  1.564695 )     1.50005530
  WF centre and spread    2  ( -0.000000, -0.045185,  1.564695 )     1.79022305
  WF centre and spread    3  (  0.000000,  0.045684,  1.564695 )     1.79008596
  WF centre and spread    4  ( -0.000000, -0.111424,  1.564695 )     1.63564636
  WF centre and spread    5  (  0.000000,  0.109274,  1.564695 )     1.63611483
  WF centre and spread    6  (  1.595000, -0.919238, -0.095714 )     1.74611713
  WF centre and spread    7  (  1.595000, -0.911309,  0.043998 )     1.63544743
  WF centre and spread    8  (  1.595000, -0.931969,  0.043986 )     1.63633199
  WF centre and spread    9  (  1.595000, -0.919238,  3.225104 )     1.74611799
[...]
  WF centre and spread    6  (  1.595000, -0.918164, -0.095726 )     1.74623868
  WF centre and spread    7  (  1.595000, -0.911290,  0.044001 )     1.63529091
  WF centre and spread    8  (  1.595000, -0.933048,  0.043971 )     1.63631229
  WF centre and spread    9  (  1.595000, -0.918164,  3.225116 )     1.74623954
  WF centre and spread   10  (  1.595000, -0.911290,  3.085389 )     1.63529111
  WF centre and spread   11  (  1.595000, -0.933048,  3.085419 )     1.63631250
  Sum of centres and spreads (  9.569999, -5.525434, 17.211645 )    18.38767952
 
     88    -0.237E-05     0.0020503730       18.3876793791       0.89  <-- CONV
        O_D=      0.0306360 O_OD=      1.0725309 O_TOT=     18.3876794 <-- SPRD
 Delta: O_D= -0.6132478E-06 O_OD= -0.1761554E-05 O_TOT= -0.2374802E-05 <-- DLTA
 ------------------------------------------------------------------------------
 Cycle:     89
  WF centre and spread    1  (  0.000000,  0.002247,  1.564695 )     1.50048133
  WF centre and spread    2  ( -0.000000, -0.045187,  1.564695 )     1.79027237
  WF centre and spread    3  (  0.000000,  0.045685,  1.564695 )     1.79015544
  WF centre and spread    4  ( -0.000000, -0.112431,  1.564695 )     1.63514337
  WF centre and spread    5  (  0.000000,  0.109256,  1.564695 )     1.63594516
  WF centre and spread    6  (  1.595000, -0.918156, -0.095731 )     1.74623702
  WF centre and spread    7  (  1.595000, -0.911289,  0.044004 )     1.63528010
  WF centre and spread    8  (  1.595000, -0.933057,  0.043973 )     1.63632239
  WF centre and spread    9  (  1.595000, -0.918156,  3.225121 )     1.74623788
  WF centre and spread   10  (  1.595000, -0.911289,  3.085386 )     1.63528030
  WF centre and spread   11  (  1.595000, -0.933057,  3.085416 )     1.63632260
  Sum of centres and spreads (  9.569999, -5.525434, 17.211645 )    18.38767796
 
     89    -0.156E-05     0.0015009248       18.3876778215       0.90  <-- CONV
        O_D=      0.0306353 O_OD=      1.0725300 O_TOT=     18.3876778 <-- SPRD
 Delta: O_D= -0.7032491E-06 O_OD= -0.8542578E-06 O_TOT= -0.1557507E-05 <-- DLTA
 ------------------------------------------------------------------------------
 Cycle:     90
  WF centre and spread    1  (  0.000000,  0.002256,  1.564695 )     1.50050008
  WF centre and spread    2  ( -0.000000, -0.045188,  1.564695 )     1.79027277
  WF centre and spread    3  (  0.000000,  0.045685,  1.564695 )     1.79015804
  WF centre and spread    4  ( -0.000000, -0.112442,  1.564695 )     1.63513059
  WF centre and spread    5  (  0.000000,  0.109257,  1.564695 )     1.63593453
  WF centre and spread    6  (  1.595000, -0.918146, -0.095733 )     1.74623643
  WF centre and spread    7  (  1.595000, -0.911288,  0.044005 )     1.63527685
  WF centre and spread    8  (  1.595000, -0.933067,  0.043974 )     1.63632641
  WF centre and spread    9  (  1.595000, -0.918146,  3.225123 )     1.74623729
  WF centre and spread   10  (  1.595000, -0.911288,  3.085385 )     1.63527705
  WF centre and spread   11  (  1.595000, -0.933067,  3.085416 )     1.63632662
  Sum of centres and spreads (  9.569999, -5.525434, 17.211645 )    18.38767666
 
     90    -0.130E-05     0.0013637912       18.3876765223       0.91  <-- CONV
        O_D=      0.0306347 O_OD=      1.0725293 O_TOT=     18.3876765 <-- SPRD
 Delta: O_D= -0.6324184E-06 O_OD= -0.6668590E-06 O_TOT= -0.1299277E-05 <-- DLTA
 ------------------------------------------------------------------------------
 Cycle:     91
  WF centre and spread    1  (  0.000000,  0.002258,  1.564695 )     1.50049547
  WF centre and spread    2  ( -0.000000, -0.045187,  1.564695 )     1.79027213
  WF centre and spread    3  (  0.000000,  0.045685,  1.564695 )     1.79015698
  WF centre and spread    4  ( -0.000000, -0.112443,  1.564695 )     1.63513183
  WF centre and spread    5  (  0.000000,  0.109256,  1.564695 )     1.63593671
  WF centre and spread    6  (  1.595000, -0.918143, -0.095731 )     1.74623803
  WF centre and spread    7  (  1.595000, -0.911288,  0.044004 )     1.63527973
  WF centre and spread    8  (  1.595000, -0.933070,  0.043973 )     1.63632273
  WF centre and spread    9  (  1.595000, -0.918143,  3.225121 )     1.74623889
  WF centre and spread   10  (  1.595000, -0.911288,  3.085386 )     1.63527994
  WF centre and spread   11  (  1.595000, -0.933070,  3.085417 )     1.63632294
  Sum of centres and spreads (  9.569999, -5.525434, 17.211645 )    18.38767539
 
     91    -0.128E-05     0.0017274003       18.3876752461       0.92  <-- CONV
        O_D=      0.0306346 O_OD=      1.0725281 O_TOT=     18.3876752 <-- SPRD
 Delta: O_D= -0.6475473E-07 O_OD= -0.1211386E-05 O_TOT= -0.1276140E-05 <-- DLTA
 ------------------------------------------------------------------------------
 Cycle:     92
  WF centre and spread    1  (  0.000000,  0.002265,  1.564695 )     1.50048118
  WF centre and spread    2  ( -0.000000, -0.045186,  1.564695 )     1.79027001
  WF centre and spread    3  (  0.000000,  0.045684,  1.564695 )     1.79015353
  WF centre and spread    4  ( -0.000000, -0.112449,  1.564695 )     1.63513595
  WF centre and spread    5  (  0.000000,  0.109254,  1.564695 )     1.63594358
  WF centre and spread    6  (  1.595000, -0.918135, -0.095726 )     1.74624146
  WF centre and spread    7  (  1.595000, -0.911290,  0.044001 )     1.63528995
  WF centre and spread    8  (  1.595000, -0.933076,  0.043971 )     1.63631274
  WF centre and spread    9  (  1.595000, -0.918135,  3.225116 )     1.74624232
  WF centre and spread   10  (  1.595000, -0.911290,  3.085389 )     1.63529016
  WF centre and spread   11  (  1.595000, -0.933076,  3.085419 )     1.63631295
  Sum of centres and spreads (  9.569999, -5.525435, 17.211645 )    18.38767384
 
     92    -0.155E-05     0.0013574801       18.3876737006       0.92  <-- CONV
        O_D=      0.0306347 O_OD=      1.0725265 O_TOT=     18.3876737 <-- SPRD
 Delta: O_D=  0.6884773E-07 O_OD= -0.1614355E-05 O_TOT= -0.1545508E-05 <-- DLTA
 ------------------------------------------------------------------------------
 Cycle:     93
  WF centre and spread    1  (  0.000000,  0.002280,  1.564695 )     1.50045260
  WF centre and spread    2  ( -0.000000, -0.045185,  1.564695 )     1.79026624
  WF centre and spread    3  (  0.000000,  0.045683,  1.564695 )     1.79014657
  WF centre and spread    4  ( -0.000000, -0.112466,  1.564695 )     1.63514546
  WF centre and spread    5  (  0.000000,  0.109252,  1.564695 )     1.63595931
  WF centre and spread    6  (  1.595000, -0.918117, -0.095718 )     1.74624213
  WF centre and spread    7  (  1.595000, -0.911291,  0.043998 )     1.63531028
  WF centre and spread    8  (  1.595000, -0.933092,  0.043967 )     1.63629760
  WF centre and spread    9  (  1.595000, -0.918117,  3.225108 )     1.74624299
  WF centre and spread   10  (  1.595000, -0.911291,  3.085392 )     1.63531048
  WF centre and spread   11  (  1.595000, -0.933092,  3.085423 )     1.63629781
  Sum of centres and spreads (  9.569999, -5.525437, 17.211645 )    18.38767148
 
     93    -0.236E-05     0.0014961422       18.3876713372       0.93  <-- CONV
        O_D=      0.0306347 O_OD=      1.0725241 O_TOT=     18.3876713 <-- SPRD
 Delta: O_D= -0.8284068E-08 O_OD= -0.2355156E-05 O_TOT= -0.2363440E-05 <-- DLTA
 ------------------------------------------------------------------------------
 Cycle:     94
  WF centre and spread    1  (  0.000000,  0.002317,  1.564695 )     1.50040406
  WF centre and spread    2  ( -0.000000, -0.045184,  1.564695 )     1.79026349
  WF centre and spread    3  (  0.000000,  0.045682,  1.564695 )     1.79013699
  WF centre and spread    4  ( -0.000000, -0.112508,  1.564695 )     1.63516604
  WF centre and spread    5  (  0.000000,  0.109253,  1.564695 )     1.63599598
  WF centre and spread    6  (  1.595000, -0.918075, -0.095706 )     1.74623083
  WF centre and spread    7  (  1.595000, -0.911294,  0.043993 )     1.63533886
  WF centre and spread    8  (  1.595000, -0.933130,  0.043961 )     1.63627979
  WF centre and spread    9  (  1.595000, -0.918075,  3.225096 )     1.74623169
  WF centre and spread   10  (  1.595000, -0.911294,  3.085397 )     1.63533906
  WF centre and spread   11  (  1.595000, -0.933130,  3.085429 )     1.63627999
  Sum of centres and spreads (  9.569999, -5.525441, 17.211645 )    18.38766677
 
     94    -0.471E-05     0.0020432848       18.3876666267       0.94  <-- CONV
        O_D=      0.0306343 O_OD=      1.0725198 O_TOT=     18.3876666 <-- SPRD
 Delta: O_D= -0.3976699E-06 O_OD= -0.4312783E-05 O_TOT= -0.4710453E-05 <-- DLTA
 ------------------------------------------------------------------------------
 Cycle:     95
  WF centre and spread    1  (  0.000000,  0.002397,  1.564695 )     1.50034405
  WF centre and spread    2  ( -0.000000, -0.045184,  1.564695 )     1.79026768
  WF centre and spread    3  (  0.000000,  0.045681,  1.564695 )     1.79012893
  WF centre and spread    4  ( -0.000000, -0.112602,  1.564695 )     1.63519507
  WF centre and spread    5  (  0.000000,  0.109258,  1.564695 )     1.63606407
  WF centre and spread    6  (  1.595000, -0.917981, -0.095691 )     1.74619770
  WF centre and spread    7  (  1.595000, -0.911298,  0.043988 )     1.63536493
  WF centre and spread    8  (  1.595000, -0.933219,  0.043951 )     1.63626527
  WF centre and spread    9  (  1.595000, -0.917981,  3.225082 )     1.74619856
  WF centre and spread   10  (  1.595000, -0.911298,  3.085402 )     1.63536513
  WF centre and spread   11  (  1.595000, -0.933219,  3.085439 )     1.63626548
  Sum of centres and spreads (  9.569999, -5.525446, 17.211645 )    18.38765688
 
     95    -0.989E-05     0.0028659453       18.3876567396       0.95  <-- CONV
        O_D=      0.0306337 O_OD=      1.0725106 O_TOT=     18.3876567 <-- SPRD
 Delta: O_D= -0.6248330E-06 O_OD= -0.9262344E-05 O_TOT= -0.9887177E-05 <-- DLTA
 ------------------------------------------------------------------------------
 Cycle:     96
  WF centre and spread    1  (  0.000000,  0.002506,  1.564695 )     1.50032732
  WF centre and spread    2  ( -0.000000, -0.045185,  1.564695 )     1.79027498
  WF centre and spread    3  (  0.000000,  0.045682,  1.564695 )     1.79012511
  WF centre and spread    4  ( -0.000000, -0.112725,  1.564695 )     1.63518884
  WF centre and spread    5  (  0.000000,  0.109261,  1.564695 )     1.63611034
  WF centre and spread    6  (  1.595000, -0.917853, -0.095683 )     1.74617196
  WF centre and spread    7  (  1.595000, -0.911299,  0.043985 )     1.63537473
  WF centre and spread    8  (  1.595000, -0.933343,  0.043945 )     1.63626133
  WF centre and spread    9  (  1.595000, -0.917853,  3.225073 )     1.74617283
  WF centre and spread   10  (  1.595000, -0.911299,  3.085405 )     1.63537494
  WF centre and spread   11  (  1.595000, -0.933343,  3.085445 )     1.63626153
  Sum of centres and spreads (  9.569999, -5.525452, 17.211645 )    18.38764392
 
     96    -0.130E-04     0.0038408677       18.3876437798       0.96  <-- CONV
        O_D=      0.0306326 O_OD=      1.0724987 O_TOT=     18.3876438 <-- SPRD
 Delta: O_D= -0.1041129E-05 O_OD= -0.1191859E-04 O_TOT= -0.1295972E-04 <-- DLTA
 ------------------------------------------------------------------------------
 Cycle:     97
  WF centre and spread    1  (  0.000000,  0.002508,  1.564695 )     1.50035964
  WF centre and spread    2  ( -0.000000, -0.045185,  1.564695 )     1.79027198
  WF centre and spread    3  (  0.000000,  0.045682,  1.564695 )     1.79012565
  WF centre and spread    4  ( -0.000000, -0.112724,  1.564695 )     1.63515863
  WF centre and spread    5  (  0.000000,  0.109259,  1.564695 )     1.63607918
  WF centre and spread    6  (  1.595000, -0.917851, -0.095688 )     1.74618750
  WF centre and spread    7  (  1.595000, -0.911297,  0.043988 )     1.63536505
  WF centre and spread    8  (  1.595000, -0.933348,  0.043948 )     1.63626487
  WF centre and spread    9  (  1.595000, -0.917851,  3.225078 )     1.74618836
  WF centre and spread   10  (  1.595000, -0.911297,  3.085402 )     1.63536526
  WF centre and spread   11  (  1.595000, -0.933348,  3.085442 )     1.63626508
  Sum of centres and spreads (  9.569999, -5.525453, 17.211645 )    18.38763119
 
     97    -0.127E-04     0.0058706099       18.3876310473       0.96  <-- CONV
        O_D=      0.0306313 O_OD=      1.0724872 O_TOT=     18.3876310 <-- SPRD
 Delta: O_D= -0.1292039E-05 O_OD= -0.1144050E-04 O_TOT= -0.1273254E-04 <-- DLTA
 ------------------------------------------------------------------------------
 Cycle:     98
  WF centre and spread    1  (  0.000000,  0.002512,  1.564695 )     1.50043613
  WF centre and spread    2  ( -0.000000, -0.045185,  1.564695 )     1.79026918
  WF centre and spread    3  (  0.000000,  0.045683,  1.564695 )     1.79013140
  WF centre and spread    4  ( -0.000000, -0.112724,  1.564695 )     1.63509714
  WF centre and spread    5  (  0.000000,  0.109255,  1.564695 )     1.63601680
  WF centre and spread    6  (  1.595000, -0.917845, -0.095700 )     1.74621683
  WF centre and spread    7  (  1.595000, -0.911293,  0.043993 )     1.63533881
  WF centre and spread    8  (  1.595000, -0.933359,  0.043954 )     1.63627912
  WF centre and spread    9  (  1.595000, -0.917845,  3.225090 )     1.74621769
  WF centre and spread   10  (  1.595000, -0.911293,  3.085397 )     1.63533901
  WF centre and spread   11  (  1.595000, -0.933359,  3.085436 )     1.63627933
  Sum of centres and spreads (  9.569999, -5.525453, 17.211645 )    18.38762143
 
     98    -0.976E-05     0.0038139527       18.3876212855       0.97  <-- CONV
        O_D=      0.0306307 O_OD=      1.0724781 O_TOT=     18.3876213 <-- SPRD
 Delta: O_D= -0.6374869E-06 O_OD= -0.9124318E-05 O_TOT= -0.9761805E-05 <-- DLTA
 ------------------------------------------------------------------------------
 Cycle:     99
  WF centre and spread    1  (  0.000000,  0.002516,  1.564695 )     1.50049965
  WF centre and spread    2  ( -0.000000, -0.045186,  1.564695 )     1.79027080
  WF centre and spread    3  (  0.000000,  0.045684,  1.564695 )     1.79013996
  WF centre and spread    4  ( -0.000000, -0.112726,  1.564695 )     1.63505592
  WF centre and spread    5  (  0.000000,  0.109254,  1.564695 )     1.63597678
  WF centre and spread    6  (  1.595000, -0.917840, -0.095711 )     1.74622970
  WF centre and spread    7  (  1.595000, -0.911289,  0.043997 )     1.63530962
  WF centre and spread    8  (  1.595000, -0.933368,  0.043959 )     1.63629686
  WF centre and spread    9  (  1.595000, -0.917840,  3.225101 )     1.74623057
  WF centre and spread   10  (  1.595000, -0.911289,  3.085393 )     1.63530983
  WF centre and spread   11  (  1.595000, -0.933368,  3.085431 )     1.63629707
  Sum of centres and spreads (  9.569999, -5.525452, 17.211645 )    18.38761676
 
     99    -0.467E-05     0.0028477639       18.3876166188       0.98  <-- CONV
        O_D=      0.0306303 O_OD=      1.0724738 O_TOT=     18.3876166 <-- SPRD
 Delta: O_D= -0.3753426E-06 O_OD= -0.4291375E-05 O_TOT= -0.4666717E-05 <-- DLTA
 ------------------------------------------------------------------------------
 Cycle:    100
  WF centre and spread    1  (  0.000000,  0.002521,  1.564695 )     1.50054223
  WF centre and spread    2  ( -0.000000, -0.045187,  1.564695 )     1.79027299
  WF centre and spread    3  (  0.000000,  0.045684,  1.564695 )     1.79014666
  WF centre and spread    4  ( -0.000000, -0.112731,  1.564695 )     1.63503259
  WF centre and spread    5  (  0.000000,  0.109255,  1.564695 )     1.63595493
  WF centre and spread    6  (  1.595000, -0.917834, -0.095718 )     1.74623122
  WF centre and spread    7  (  1.595000, -0.911287,  0.044000 )     1.63528867
  WF centre and spread    8  (  1.595000, -0.933375,  0.043962 )     1.63631198
  WF centre and spread    9  (  1.595000, -0.917834,  3.225108 )     1.74623208
  WF centre and spread   10  (  1.595000, -0.911287,  3.085390 )     1.63528888
  WF centre and spread   11  (  1.595000, -0.933375,  3.085428 )     1.63631219
  Sum of centres and spreads (  9.569999, -5.525452, 17.211645 )    18.38761443
 
    100    -0.233E-05     0.0020267124       18.3876142907       0.99  <-- CONV
        O_D=      0.0306297 O_OD=      1.0724721 O_TOT=     18.3876143 <-- SPRD
 Delta: O_D= -0.5827096E-06 O_OD= -0.1745385E-05 O_TOT= -0.2328094E-05 <-- DLTA
 ------------------------------------------------------------------------------

 Writing checkpoint file wannier90.chk... done

 Final State
  WF centre and spread    1  (  0.000000,  0.002521,  1.564695 )     1.50054223
  WF centre and spread    2  ( -0.000000, -0.045187,  1.564695 )     1.79027299
  WF centre and spread    3  (  0.000000,  0.045684,  1.564695 )     1.79014666
  WF centre and spread    4  ( -0.000000, -0.112731,  1.564695 )     1.63503259
  WF centre and spread    5  (  0.000000,  0.109255,  1.564695 )     1.63595493
  WF centre and spread    6  (  1.595000, -0.917834, -0.095718 )     1.74623122
  WF centre and spread    7  (  1.595000, -0.911287,  0.044000 )     1.63528867
  WF centre and spread    8  (  1.595000, -0.933375,  0.043962 )     1.63631198
  WF centre and spread    9  (  1.595000, -0.917834,  3.225108 )     1.74623208
  WF centre and spread   10  (  1.595000, -0.911287,  3.085390 )     1.63528888
  WF centre and spread   11  (  1.595000, -0.933375,  3.085428 )     1.63631219
  Sum of centres and spreads (  9.569999, -5.525452, 17.211645 )    18.38761443
 
         Spreads (Ang^2)       Omega I      =    17.284512499
        ================       Omega D      =     0.030629739
                               Omega OD     =     1.072472053
    Final Spread (Ang^2)       Omega Total  =    18.387614291
 ------------------------------------------------------------------------------
 Time for wannierise            0.995 (sec)

 Writing checkpoint file wannier90.chk... done

 *---------------------------------------------------------------------------*
 |                               PLOTTING                                    |
 *---------------------------------------------------------------------------*
 
      Wannier Function Num:    1       Maximum Im/Re Ratio =    0.000006
      Wannier Function Num:    2       Maximum Im/Re Ratio =    0.000005
      Wannier Function Num:    3       Maximum Im/Re Ratio =    0.000009
      Wannier Function Num:    4       Maximum Im/Re Ratio =    0.000007
      Wannier Function Num:    5       Maximum Im/Re Ratio =    0.000004
      Wannier Function Num:    6       Maximum Im/Re Ratio =    0.000008
      Wannier Function Num:    7       Maximum Im/Re Ratio =    0.000004
      Wannier Function Num:    8       Maximum Im/Re Ratio =    0.000005
      Wannier Function Num:    9       Maximum Im/Re Ratio =    0.000009
      Wannier Function Num:   10       Maximum Im/Re Ratio =    0.000003
      Wannier Function Num:   11       Maximum Im/Re Ratio =    0.000003
  
 Time for plotting            586.071 (sec)
 Total Execution Time         587.259 (sec)

 *===========================================================================*
 |                             TIMING INFORMATION                            |
 *===========================================================================*
 |    Tag                                                Ncalls      Time (s)|
 |---------------------------------------------------------------------------|
 |kmesh: get                                        :         1         0.082|
 |overlap: allocate                                 :         1         0.002|
 |overlap: read                                     :         1         0.087|
 |wann: main                                        :         1         0.995|
 |plot: main                                        :         1       586.071|
 *---------------------------------------------------------------------------*
 
 All done: wannier90 exiting
