 written on  9Mar2019 at 05:09:51 
          11
          83
    2    1    1    2    1    1    1    1    1    1    1    1    1    1    1
    1    1    1    1    1    1    1    1    1    1    1    1    1    1    1
    1    1    1    1    1    1    1    1    1    1    1    1    1    1    1
    1    1    1    1    1    1    1    1    1    1    1    1    1    1    1
    1    1    1    1    1    1    1    1    1    1    1    1    1    1    1
    1    1    1    1    2    1    1    2
   -5   -4    0    1    1    0.000005   -0.000000
   -5   -4    0    2    1    0.000000    0.000000
   -5   -4    0    3    1    0.000000   -0.000000
   -5   -4    0    4    1   -0.000102    0.000000
   -5   -4    0    5    1    0.000000    0.000000
   -5   -4    0    6    1    0.000381    0.000000
   -5   -4    0    7    1    0.000126    0.000000
   -5   -4    0    8    1    0.000012   -0.000000
   -5   -4    0    9    1   -0.000381   -0.000000
   -5   -4    0   10    1    0.000126    0.000000
   -5   -4    0   11    1    0.000012   -0.000000
   -5   -4    0    1    2   -0.000000   -0.000000
   -5   -4    0    2    2   -0.000296   -0.000000
   -5   -4    0    3    2    0.000000   -0.000000
   -5   -4    0    4    2    0.000000   -0.000000
   -5   -4    0    5    2   -0.000000    0.000000
   -5   -4    0    6    2    0.000068    0.000000
   -5   -4    0    7    2    0.000614    0.000000
   -5   -4    0    8    2    0.000214    0.000000
   -5   -4    0    9    2    0.000068    0.000000
   -5   -4    0   10    2   -0.000614   -0.000000
   -5   -4    0   11    2   -0.000214   -0.000000
   -5   -4    0    1    3    0.000000   -0.000000
   -5   -4    0    2    3    0.000000   -0.000000
   -5   -4    0    3    3    0.000147    0.000000
   -5   -4    0    4    3    0.000000    0.000000
   -5   -4    0    5    3   -0.000000    0.000000
   -5   -4    0    6    3    0.000035    0.000000
   -5   -4    0    7    3    0.000293   -0.000000
   -5   -4    0    8    3    0.000112   -0.000000
   -5   -4    0    9    3    0.000035    0.000000
   -5   -4    0   10    3   -0.000293    0.000000
   -5   -4    0   11    3   -0.000112    0.000000
   -5   -4    0    1    4    0.000221    0.000000
   -5   -4    0    2    4   -0.000000   -0.000000
   -5   -4    0    3    4   -0.000000   -0.000000
   -5   -4    0    4    4   -0.000359   -0.000000
   -5   -4    0    5    4   -0.000000    0.000000
   -5   -4    0    6    4   -0.000484   -0.000000
   -5   -4    0    7    4   -0.000244    0.000000
   -5   -4    0    8    4   -0.000051   -0.000000
   -5   -4    0    9    4    0.000484    0.000000
   -5   -4    0   10    4   -0.000244    0.000000
   -5   -4    0   11    4   -0.000051   -0.000000
   -5   -4    0    1    5    0.000000    0.000000
   -5   -4    0    2    5   -0.000000   -0.000000
   -5   -4    0    3    5   -0.000000    0.000000
   -5   -4    0    4    5   -0.000000    0.000000
   -5   -4    0    5    5    0.000259    0.000000
   -5   -4    0    6    5    0.000264   -0.000000
   -5   -4    0    7    5    0.000056    0.000000
   -5   -4    0    8    5    0.000006    0.000000
   -5   -4    0    9    5   -0.000264   -0.000000
   -5   -4    0   10    5    0.000056    0.000000
   -5   -4    0   11    5    0.000006    0.000000
   -5   -4    0    1    6    0.000082   -0.000000
   -5   -4    0    2    6    0.000056   -0.000000
   -5   -4    0    3    6   -0.000091    0.000000
   -5   -4    0    4    6   -0.000133   -0.000000
   -5   -4    0    5    6    0.000140   -0.000000
   -5   -4    0    6    6    0.000224   -0.000000
   -5   -4    0    7    6    0.000000   -0.000000
   -5   -4    0    8    6    0.000068    0.000000
   -5   -4    0    9    6   -0.000121   -0.000000
   -5   -4    0   10    6   -0.000000   -0.000000
   -5   -4    0   11    6    0.000009    0.000000
   -5   -4    0    1    7    0.000180   -0.000000
   -5   -4    0    2    7    0.000654    0.000000
   -5   -4    0    3    7    0.000120   -0.000000
   -5   -4    0    4    7   -0.000301    0.000000
   -5   -4    0    5    7   -0.000138    0.000000
   -5   -4    0    6    7    0.000000    0.000000
   -5   -4    0    7    7   -0.000198    0.000000
   -5   -4    0    8    7   -0.000000    0.000000
   -5   -4    0    9    7   -0.000000   -0.000000
   -5   -4    0   10    7    0.000734   -0.000000
   -5   -4    0   11    7    0.000000   -0.000000
   -5   -4    0    1    8    0.000048    0.000000
   -5   -4    0    2    8    0.000298    0.000000
   -5   -4    0    3    8    0.000324   -0.000000
   -5   -4    0    4    8   -0.000033   -0.000000
   -5   -4    0    5    8    0.000214    0.000000
   -5   -4    0    6    8    0.000152    0.000000
   -5   -4    0    7    8   -0.000000    0.000000
   -5   -4    0    8    8    0.000080   -0.000000
   -5   -4    0    9    8   -0.000147    0.000000
   -5   -4    0   10    8    0.000000   -0.000000
   -5   -4    0   11    8   -0.000087    0.000000
   -5   -4    0    1    9   -0.000082    0.000000
   -5   -4    0    2    9    0.000056   -0.000000
   -5   -4    0    3    9   -0.000091    0.000000
   -5   -4    0    4    9    0.000133   -0.000000
   -5   -4    0    5    9   -0.000140    0.000000
   -5   -4    0    6    9   -0.000121    0.000000
   -5   -4    0    7    9    0.000000    0.000000
   -5   -4    0    8    9   -0.000009   -0.000000
   -5   -4    0    9    9    0.000224   -0.000000
   -5   -4    0   10    9   -0.000000    0.000000
   -5   -4    0   11    9   -0.000068   -0.000000
   -5   -4    0    1   10    0.000180   -0.000000
   -5   -4    0    2   10   -0.000654   -0.000000
   -5   -4    0    3   10   -0.000120    0.000000
   -5   -4    0    4   10   -0.000301    0.000000
   -5   -4    0    5   10   -0.000138    0.000000
   -5   -4    0    6   10    0.000000    0.000000
   -5   -4    0    7   10    0.000734   -0.000000
   -5   -4    0    8   10    0.000000   -0.000000
   -5   -4    0    9   10   -0.000000   -0.000000
   -5   -4    0   10   10   -0.000198    0.000000
   -5   -4    0   11   10   -0.000000    0.000000
   -5   -4    0    1   11    0.000048    0.000000
   -5   -4    0    2   11   -0.000298   -0.000000
   -5   -4    0    3   11   -0.000324    0.000000
   -5   -4    0    4   11   -0.000033   -0.000000
   -5   -4    0    5   11    0.000214    0.000000
   -5   -4    0    6   11    0.000147   -0.000000
   -5   -4    0    7   11    0.000000   -0.000000
   -5   -4    0    8   11   -0.000087    0.000000
   -5   -4    0    9   11   -0.000152   -0.000000
   -5   -4    0   10   11   -0.000000    0.000000
   -5   -4    0   11   11    0.000080   -0.000000
   -5   -3    0    1    1   -0.000217    0.000000
   -5   -3    0    2    1   -0.000000   -0.000000
   -5   -3    0    3    1   -0.000000   -0.000000
   -5   -3    0    4    1    0.000106   -0.000000
   -5   -3    0    5    1   -0.000645    0.000000
   -5   -3    0    6    1   -0.000341   -0.000000
   -5   -3    0    7    1   -0.000000   -0.000000
   -5   -3    0    8    1   -0.000091   -0.000000
   -5   -3    0    9    1    0.000341    0.000000
   -5   -3    0   10    1   -0.000000   -0.000000
   -5   -3    0   11    1   -0.000091   -0.000000
   -5   -3    0    1    2   -0.000000    0.000000
   -5   -3    0    2    2    0.000303    0.000000
   -5   -3    0    3    2    0.000040    0.000000
   -5   -3    0    4    2    0.000000   -0.000000
   -5   -3    0    5    2   -0.000000   -0.000000
   -5   -3    0    6    2    0.000000    0.000000
   -5   -3    0    7    2   -0.000333    0.000000
   -5   -3    0    8    2   -0.000000    0.000000
   -5   -3    0    9    2    0.000000    0.000000
   -5   -3    0   10    2    0.000333   -0.000000
   -5   -3    0   11    2    0.000000   -0.000000
   -5   -3    0    1    3   -0.000000   -0.000000
   -5   -3    0    2    3   -0.000043    0.000000
   -5   -3    0    3    3   -0.000021   -0.000000
   -5   -3    0    4    3   -0.000000    0.000000
   -5   -3    0    5    3    0.000000   -0.000000
   -5   -3    0    6    3   -0.000078    0.000000
   -5   -3    0    7    3    0.000000   -0.000000
   -5   -3    0    8    3    0.000113    0.000000
   -5   -3    0    9    3   -0.000078    0.000000
   -5   -3    0   10    3   -0.000000    0.000000
   -5   -3    0   11    3   -0.000113   -0.000000
   -5   -3    0    1    4    0.000068   -0.000000
   -5   -3    0    2    4   -0.000000   -0.000000
   -5   -3    0    3    4    0.000000    0.000000
   -5   -3    0    4    4   -0.000240    0.000000
   -5   -3    0    5    4    0.000530   -0.000000
   -5   -3    0    6    4    0.000446    0.000000
   -5   -3    0    7    4    0.000000    0.000000
   -5   -3    0    8    4    0.000058   -0.000000
   -5   -3    0    9    4   -0.000446   -0.000000
   -5   -3    0   10    4    0.000000    0.000000
   -5   -3    0   11    4    0.000058   -0.000000
   -5   -3    0    1    5   -0.000093   -0.000000
   -5   -3    0    2    5    0.000000   -0.000000
   -5   -3    0    3    5    0.000000   -0.000000
   -5   -3    0    4    5   -0.000102   -0.000000
   -5   -3    0    5    5   -0.000233   -0.000000
   -5   -3    0    6    5    0.000000    0.000000
   -5   -3    0    7    5   -0.000008    0.000000
   -5   -3    0    8    5   -0.000000    0.000000
   -5   -3    0    9    5   -0.000000    0.000000
   -5   -3    0   10    5   -0.000008    0.000000
   -5   -3    0   11    5   -0.000000    0.000000
   -5   -3    0    1    6   -0.000257    0.000000
   -5   -3    0    2    6    0.000126    0.000000
   -5   -3    0    3    6    0.000082    0.000000
   -5   -3    0    4    6    0.000251    0.000000
   -5   -3    0    5    6   -0.000506    0.000000
   -5   -3    0    6    6   -0.000172   -0.000000
   -5   -3    0    7    6    0.000010    0.000000
   -5   -3    0    8    6   -0.000075   -0.000000
   -5   -3    0    9    6    0.000223   -0.000000
   -5   -3    0   10    6    0.000113    0.000000
   -5   -3    0   11    6   -0.000004   -0.000000
   -5   -3    0    1    7   -0.000270   -0.000000
   -5   -3    0    2    7   -0.000328   -0.000000
   -5   -3    0    3    7    0.000149   -0.000000
   -5   -3    0    4    7    0.000224    0.000000
   -5   -3    0    5    7   -0.000462    0.000000
   -5   -3    0    6    7   -0.000212   -0.000000
   -5   -3    0    7    7    0.000594   -0.000000
   -5   -3    0    8    7   -0.000117   -0.000000
   -5   -3    0    9    7    0.000238    0.000000
   -5   -3    0   10    7   -0.000266    0.000000
   -5   -3    0   11    7   -0.000079    0.000000
   -5   -3    0    1    8    0.000267   -0.000000
   -5   -3    0    2    8   -0.000299    0.000000
   -5   -3    0    3    8   -0.000007   -0.000000
   -5   -3    0    4    8   -0.000147   -0.000000
   -5   -3    0    5    8    0.000300    0.000000
   -5   -3    0    6    8    0.000081    0.000000
   -5   -3    0    7    8   -0.000000   -0.000000
   -5   -3    0    8    8   -0.000076    0.000000
   -5   -3    0    9    8   -0.000083   -0.000000
   -5   -3    0   10    8   -0.000216    0.000000
   -5   -3    0   11    8    0.000117   -0.000000
   -5   -3    0    1    9    0.000257   -0.000000
   -5   -3    0    2    9    0.000126    0.000000
   -5   -3    0    3    9    0.000082    0.000000
   -5   -3    0    4    9   -0.000251   -0.000000
   -5   -3    0    5    9    0.000506   -0.000000
   -5   -3    0    6    9    0.000223    0.000000
   -5   -3    0    7    9   -0.000113   -0.000000
   -5   -3    0    8    9    0.000004    0.000000
   -5   -3    0    9    9   -0.000172   -0.000000
   -5   -3    0   10    9   -0.000010   -0.000000
   -5   -3    0   11    9    0.000075    0.000000
   -5   -3    0    1   10   -0.000270    0.000000
   -5   -3    0    2   10    0.000328    0.000000
   -5   -3    0    3   10   -0.000149    0.000000
   -5   -3    0    4   10    0.000224    0.000000
   -5   -3    0    5   10   -0.000462    0.000000
   -5   -3    0    6   10   -0.000238   -0.000000
   -5   -3    0    7   10   -0.000266    0.000000
   -5   -3    0    8   10   -0.000079    0.000000
   -5   -3    0    9   10    0.000212    0.000000
   -5   -3    0   10   10    0.000594   -0.000000
   -5   -3    0   11   10   -0.000117   -0.000000
   -5   -3    0    1   11    0.000267   -0.000000
   -5   -3    0    2   11    0.000299   -0.000000
   -5   -3    0    3   11    0.000007   -0.000000
   -5   -3    0    4   11   -0.000147   -0.000000
   -5   -3    0    5   11    0.000300    0.000000
   -5   -3    0    6   11    0.000083    0.000000
   -5   -3    0    7   11   -0.000216    0.000000
   -5   -3    0    8   11    0.000117   -0.000000
   -5   -3    0    9   11   -0.000081    0.000000
   -5   -3    0   10   11   -0.000000   -0.000000
   -5   -3    0   11   11   -0.000076    0.000000
   -5   -2    0    1    1   -0.000233   -0.000000
   -5   -2    0    2    1    0.000000   -0.000000
   -5   -2    0    3    1    0.000000    0.000000
   -5   -2    0    4    1    0.000473    0.000000
   -5   -2    0    5    1   -0.000383    0.000000
   -5   -2    0    6    1   -0.000313   -0.000000
   -5   -2    0    7    1    0.000069    0.000000
   -5   -2    0    8    1    0.000031    0.000000
   -5   -2    0    9    1    0.000313    0.000000
   -5   -2    0   10    1    0.000069   -0.000000
   -5   -2    0   11    1    0.000031    0.000000
   -5   -2    0    1    2    0.000000    0.000000
   -5   -2    0    2    2    0.000059   -0.000000
   -5   -2    0    3    2   -0.000180   -0.000000
   -5   -2    0    4    2    0.000000    0.000000
   -5   -2    0    5    2   -0.000000    0.000000
   -5   -2    0    6    2    0.000063   -0.000000
   -5   -2    0    7    2   -0.000001    0.000000
   -5   -2    0    8    2    0.000197   -0.000000
   -5   -2    0    9    2    0.000063   -0.000000
   -5   -2    0   10    2    0.000001   -0.000000
   -5   -2    0   11    2   -0.000197    0.000000
   -5   -2    0    1    3    0.000000    0.000000
   -5   -2    0    2    3   -0.000097   -0.000000
   -5   -2    0    3    3    0.000223    0.000000
   -5   -2    0    4    3   -0.000000   -0.000000
   -5   -2    0    5    3    0.000000    0.000000
   -5   -2    0    6    3    0.000037   -0.000000
   -5   -2    0    7    3    0.000194    0.000000
   -5   -2    0    8    3   -0.000222    0.000000
   -5   -2    0    9    3    0.000037   -0.000000
   -5   -2    0   10    3   -0.000194   -0.000000
   -5   -2    0   11    3    0.000222    0.000000
   -5   -2    0    1    4    0.000040    0.000000
   -5   -2    0    2    4    0.000000    0.000000
   -5   -2    0    3    4    0.000000   -0.000000
   -5   -2    0    4    4   -0.000006   -0.000000
   -5   -2    0    5    4   -0.000229    0.000000
   -5   -2    0    6    4   -0.000250   -0.000000
   -5   -2    0    7    4    0.000028   -0.000000
   -5   -2    0    8    4    0.000002    0.000000
   -5   -2    0    9    4    0.000250    0.000000
   -5   -2    0   10    4    0.000028   -0.000000
   -5   -2    0   11    4    0.000002    0.000000
   -5   -2    0    1    5   -0.000132   -0.000000
   -5   -2    0    2    5    0.000000    0.000000
   -5   -2    0    3    5    0.000000    0.000000
   -5   -2    0    4    5    0.000424    0.000000
   -5   -2    0    5    5   -0.000453    0.000000
   -5   -2    0    6    5   -0.000402   -0.000000
   -5   -2    0    7    5    0.000038   -0.000000
   -5   -2    0    8    5    0.000017   -0.000000
   -5   -2    0    9    5    0.000402    0.000000
   -5   -2    0   10    5    0.000038   -0.000000
   -5   -2    0   11    5    0.000017   -0.000000
   -5   -2    0    1    6   -0.000255    0.000000
   -5   -2    0    2    6   -0.000020   -0.000000
   -5   -2    0    3    6   -0.000140   -0.000000
   -5   -2    0    4    6    0.000291   -0.000000
   -5   -2    0    5    6   -0.000473   -0.000000
   -5   -2    0    6    6   -0.000176   -0.000000
   -5   -2    0    7    6    0.000076    0.000000
   -5   -2    0    8    6    0.000022   -0.000000
   -5   -2    0    9    6    0.000220   -0.000000
   -5   -2    0   10    6    0.000050    0.000000
   -5   -2    0   11    6   -0.000088   -0.000000
   -5   -2    0    1    7   -0.000366    0.000000
   -5   -2    0    2    7   -0.000017   -0.000000
   -5   -2    0    3    7   -0.000131    0.000000
   -5   -2    0    4    7    0.000282   -0.000000
   -5   -2    0    5    7   -0.000469   -0.000000
   -5   -2    0    6    7   -0.000174   -0.000000
   -5   -2    0    7    7    0.000140    0.000000
   -5   -2    0    8    7   -0.000264    0.000000
   -5   -2    0    9    7    0.000196    0.000000
   -5   -2    0   10    7    0.000147   -0.000000
   -5   -2    0   11    7    0.000017   -0.000000
   -5   -2    0    1    8    0.000089    0.000000
   -5   -2    0    2    8    0.000321   -0.000000
   -5   -2    0    3    8   -0.000314   -0.000000
   -5   -2    0    4    8   -0.000137    0.000000
   -5   -2    0    5    8    0.000214   -0.000000
   -5   -2    0    6    8    0.000131    0.000000
   -5   -2    0    7    8   -0.000371    0.000000
   -5   -2    0    8    8    0.000384   -0.000000
   -5   -2    0    9    8   -0.000157   -0.000000
   -5   -2    0   10    8    0.000163   -0.000000
   -5   -2    0   11    8   -0.000299    0.000000
   -5   -2    0    1    9    0.000255   -0.000000
   -5   -2    0    2    9   -0.000020   -0.000000
   -5   -2    0    3    9   -0.000140   -0.000000
   -5   -2    0    4    9   -0.000291    0.000000
   -5   -2    0    5    9    0.000473    0.000000
   -5   -2    0    6    9    0.000220    0.000000
   -5   -2    0    7    9   -0.000050   -0.000000
   -5   -2    0    8    9    0.000088    0.000000
   -5   -2    0    9    9   -0.000176   -0.000000
   -5   -2    0   10    9   -0.000076   -0.000000
   -5   -2    0   11    9   -0.000022   -0.000000
   -5   -2    0    1   10   -0.000366    0.000000
   -5   -2    0    2   10    0.000017    0.000000
   -5   -2    0    3   10    0.000131   -0.000000
   -5   -2    0    4   10    0.000282   -0.000000
   -5   -2    0    5   10   -0.000469   -0.000000
   -5   -2    0    6   10   -0.000196   -0.000000
   -5   -2    0    7   10    0.000147   -0.000000
   -5   -2    0    8   10    0.000017   -0.000000
   -5   -2    0    9   10    0.000174    0.000000
   -5   -2    0   10   10    0.000140    0.000000
   -5   -2    0   11   10   -0.000264    0.000000
   -5   -2    0    1   11    0.000089    0.000000
   -5   -2    0    2   11   -0.000321    0.000000
   -5   -2    0    3   11    0.000314    0.000000
   -5   -2    0    4   11   -0.000137    0.000000
   -5   -2    0    5   11    0.000214   -0.000000
   -5   -2    0    6   11    0.000157    0.000000
   -5   -2    0    7   11    0.000163   -0.000000
   -5   -2    0    8   11   -0.000299    0.000000
   -5   -2    0    9   11   -0.000131   -0.000000
   -5   -2    0   10   11   -0.000371    0.000000
   -5   -2    0   11   11    0.000384   -0.000000
   -4   -5    0    1    1    0.000005    0.000000
   -4   -5    0    2    1   -0.000000    0.000000
   -4   -5    0    3    1    0.000000    0.000000
   -4   -5    0    4    1    0.000221   -0.000000
   -4   -5    0    5    1    0.000000   -0.000000
   -4   -5    0    6    1    0.000082    0.000000
   -4   -5    0    7    1    0.000180    0.000000
   -4   -5    0    8    1    0.000048   -0.000000
   -4   -5    0    9    1   -0.000082   -0.000000
   -4   -5    0   10    1    0.000180    0.000000
   -4   -5    0   11    1    0.000048   -0.000000
   -4   -5    0    1    2    0.000000   -0.000000
   -4   -5    0    2    2   -0.000296    0.000000
   -4   -5    0    3    2    0.000000    0.000000
   -4   -5    0    4    2   -0.000000    0.000000
   -4   -5    0    5    2   -0.000000    0.000000
   -4   -5    0    6    2    0.000056    0.000000
   -4   -5    0    7    2    0.000654   -0.000000
   -4   -5    0    8    2    0.000298   -0.000000
   -4   -5    0    9    2    0.000056    0.000000
   -4   -5    0   10    2   -0.000654    0.000000
   -4   -5    0   11    2   -0.000298    0.000000
   -4   -5    0    1    3    0.000000    0.000000
   -4   -5    0    2    3    0.000000    0.000000
   -4   -5    0    3    3    0.000147   -0.000000
   -4   -5    0    4    3   -0.000000    0.000000
   -4   -5    0    5    3   -0.000000   -0.000000
   -4   -5    0    6    3   -0.000091   -0.000000
   -4   -5    0    7    3    0.000120    0.000000
   -4   -5    0    8    3    0.000324    0.000000
   -4   -5    0    9    3   -0.000091   -0.000000
   -4   -5    0   10    3   -0.000120   -0.000000
   -4   -5    0   11    3   -0.000324   -0.000000
   -4   -5    0    1    4   -0.000102   -0.000000
   -4   -5    0    2    4    0.000000    0.000000
   -4   -5    0    3    4    0.000000   -0.000000
   -4   -5    0    4    4   -0.000359    0.000000
   -4   -5    0    5    4   -0.000000   -0.000000
   -4   -5    0    6    4   -0.000133    0.000000
   -4   -5    0    7    4   -0.000301   -0.000000
   -4   -5    0    8    4   -0.000033    0.000000
   -4   -5    0    9    4    0.000133    0.000000
   -4   -5    0   10    4   -0.000301   -0.000000
   -4   -5    0   11    4   -0.000033    0.000000
   -4   -5    0    1    5    0.000000   -0.000000
   -4   -5    0    2    5   -0.000000   -0.000000
   -4   -5    0    3    5   -0.000000   -0.000000
   -4   -5    0    4    5   -0.000000   -0.000000
   -4   -5    0    5    5    0.000259   -0.000000
   -4   -5    0    6    5    0.000140    0.000000
   -4   -5    0    7    5   -0.000138   -0.000000
   -4   -5    0    8    5    0.000214   -0.000000
   -4   -5    0    9    5   -0.000140   -0.000000
   -4   -5    0   10    5   -0.000138   -0.000000
   -4   -5    0   11    5    0.000214   -0.000000
   -4   -5    0    1    6    0.000381   -0.000000
   -4   -5    0    2    6    0.000068   -0.000000
   -4   -5    0    3    6    0.000035   -0.000000
   -4   -5    0    4    6   -0.000484    0.000000
   -4   -5    0    5    6    0.000264    0.000000
   -4   -5    0    6    6    0.000224    0.000000
   -4   -5    0    7    6    0.000000   -0.000000
   -4   -5    0    8    6    0.000152   -0.000000
   -4   -5    0    9    6   -0.000121   -0.000000
   -4   -5    0   10    6    0.000000   -0.000000
   -4   -5    0   11    6    0.000147    0.000000
   -4   -5    0    1    7    0.000126   -0.000000
   -4   -5    0    2    7    0.000614   -0.000000
   -4   -5    0    3    7    0.000293    0.000000
   -4   -5    0    4    7   -0.000244   -0.000000
   -4   -5    0    5    7    0.000056   -0.000000
   -4   -5    0    6    7    0.000000    0.000000
   -4   -5    0    7    7   -0.000198   -0.000000
   -4   -5    0    8    7   -0.000000   -0.000000
   -4   -5    0    9    7    0.000000   -0.000000
   -4   -5    0   10    7    0.000734    0.000000
   -4   -5    0   11    7    0.000000    0.000000
   -4   -5    0    1    8    0.000012    0.000000
   -4   -5    0    2    8    0.000214   -0.000000
   -4   -5    0    3    8    0.000112    0.000000
   -4   -5    0    4    8   -0.000051    0.000000
   -4   -5    0    5    8    0.000006   -0.000000
   -4   -5    0    6    8    0.000068   -0.000000
   -4   -5    0    7    8   -0.000000   -0.000000
   -4   -5    0    8    8    0.000080    0.000000
   -4   -5    0    9    8   -0.000009    0.000000
   -4   -5    0   10    8    0.000000    0.000000
   -4   -5    0   11    8   -0.000087   -0.000000
   -4   -5    0    1    9   -0.000381    0.000000
   -4   -5    0    2    9    0.000068   -0.000000
   -4   -5    0    3    9    0.000035   -0.000000
   -4   -5    0    4    9    0.000484   -0.000000
   -4   -5    0    5    9   -0.000264    0.000000
   -4   -5    0    6    9   -0.000121    0.000000
   -4   -5    0    7    9   -0.000000    0.000000
   -4   -5    0    8    9   -0.000147   -0.000000
   -4   -5    0    9    9    0.000224    0.000000
   -4   -5    0   10    9   -0.000000    0.000000
   -4   -5    0   11    9   -0.000152    0.000000
   -4   -5    0    1   10    0.000126   -0.000000
   -4   -5    0    2   10   -0.000614    0.000000
   -4   -5    0    3   10   -0.000293   -0.000000
   -4   -5    0    4   10   -0.000244   -0.000000
   -4   -5    0    5   10    0.000056   -0.000000
   -4   -5    0    6   10   -0.000000    0.000000
   -4   -5    0    7   10    0.000734    0.000000
   -4   -5    0    8   10    0.000000    0.000000
   -4   -5    0    9   10   -0.000000   -0.000000
   -4   -5    0   10   10   -0.000198   -0.000000
   -4   -5    0   11   10   -0.000000   -0.000000
   -4   -5    0    1   11    0.000012    0.000000
   -4   -5    0    2   11   -0.000214    0.000000
   -4   -5    0    3   11   -0.000112   -0.000000
   -4   -5    0    4   11   -0.000051    0.000000
   -4   -5    0    5   11    0.000006   -0.000000
   -4   -5    0    6   11    0.000009   -0.000000
   -4   -5    0    7   11    0.000000    0.000000
   -4   -5    0    8   11   -0.000087   -0.000000
   -4   -5    0    9   11   -0.000068    0.000000
   -4   -5    0   10   11   -0.000000   -0.000000
   -4   -5    0   11   11    0.000080    0.000000
   -4   -4    0    1    1    0.000285    0.000000
   -4   -4    0    2    1   -0.000000    0.000000
   -4   -4    0    3    1   -0.000000   -0.000000
   -4   -4    0    4    1   -0.000309    0.000000
   -4   -4    0    5    1    0.000273    0.000000
   -4   -4    0    6    1    0.000200   -0.000000
   -4   -4    0    7    1    0.000000    0.000000
   -4   -4    0    8    1    0.000202    0.000000
   -4   -4    0    9    1   -0.000200    0.000000
   -4   -4    0   10    1    0.000000    0.000000
   -4   -4    0   11    1    0.000202    0.000000
   -4   -4    0    1    2    0.000000   -0.000000
   -4   -4    0    2    2    0.001083   -0.000000
   -4   -4    0    3    2    0.000377   -0.000000
   -4   -4    0    4    2   -0.000000   -0.000000
   -4   -4    0    5    2   -0.000000    0.000000
   -4   -4    0    6    2    0.000000   -0.000000
   -4   -4    0    7    2   -0.001001   -0.000000
   -4   -4    0    8    2   -0.000000    0.000000
   -4   -4    0    9    2    0.000000   -0.000000
   -4   -4    0   10    2    0.001001    0.000000
   -4   -4    0   11    2    0.000000   -0.000000
   -4   -4    0    1    3   -0.000000   -0.000000
   -4   -4    0    2    3   -0.000377   -0.000000
   -4   -4    0    3    3   -0.000698    0.000000
   -4   -4    0    4    3    0.000000   -0.000000
   -4   -4    0    5    3   -0.000000    0.000000
   -4   -4    0    6    3    0.000136   -0.000000
   -4   -4    0    7    3    0.000000    0.000000
   -4   -4    0    8    3   -0.000198   -0.000000
   -4   -4    0    9    3    0.000136   -0.000000
   -4   -4    0   10    3   -0.000000   -0.000000
   -4   -4    0   11    3    0.000198    0.000000
   -4   -4    0    1    4   -0.000309    0.000000
   -4   -4    0    2    4    0.000000   -0.000000
   -4   -4    0    3    4   -0.000000   -0.000000
   -4   -4    0    4    4    0.000376   -0.000000
   -4   -4    0    5    4   -0.000582    0.000000
   -4   -4    0    6    4   -0.000423   -0.000000
   -4   -4    0    7    4   -0.000000   -0.000000
   -4   -4    0    8    4   -0.000056    0.000000
   -4   -4    0    9    4    0.000423    0.000000
   -4   -4    0   10    4   -0.000000   -0.000000
   -4   -4    0   11    4   -0.000056    0.000000
   -4   -4    0    1    5   -0.000273    0.000000
   -4   -4    0    2    5   -0.000000    0.000000
   -4   -4    0    3    5    0.000000    0.000000
   -4   -4    0    4    5    0.000582   -0.000000
   -4   -4    0    5    5   -0.000177    0.000000
   -4   -4    0    6    5   -0.000000   -0.000000
   -4   -4    0    7    5   -0.000313   -0.000000
   -4   -4    0    8    5   -0.000000   -0.000000
   -4   -4    0    9    5    0.000000    0.000000
   -4   -4    0   10    5   -0.000313   -0.000000
   -4   -4    0   11    5   -0.000000   -0.000000
   -4   -4    0    1    6   -0.001178    0.000000
   -4   -4    0    2    6    0.000177   -0.000000
   -4   -4    0    3    6    0.000038   -0.000000
   -4   -4    0    4    6    0.001734   -0.000000
   -4   -4    0    5    6   -0.000965   -0.000000
   -4   -4    0    6    6   -0.000490    0.000000
   -4   -4    0    7    6    0.000154    0.000000
   -4   -4    0    8    6   -0.000009   -0.000000
   -4   -4    0    9    6    0.000371    0.000000
   -4   -4    0   10    6    0.000366   -0.000000
   -4   -4    0   11    6   -0.000153   -0.000000
   -4   -4    0    1    7   -0.000699    0.000000
   -4   -4    0    2    7   -0.001968    0.000000
   -4   -4    0    3    7   -0.001497   -0.000000
   -4   -4    0    4    7    0.000707   -0.000000
   -4   -4    0    5    7   -0.001003   -0.000000
   -4   -4    0    6    7   -0.000154   -0.000000
   -4   -4    0    7    7    0.003003    0.000000
   -4   -4    0    8    7   -0.000180    0.000000
   -4   -4    0    9    7    0.000366    0.000000
   -4   -4    0   10    7    0.000046   -0.000000
   -4   -4    0   11    7    0.000215   -0.000000
   -4   -4    0    1    8   -0.000484    0.000000
   -4   -4    0    2    8   -0.000167   -0.000000
   -4   -4    0    3    8   -0.000143    0.000000
   -4   -4    0    4    8    0.000358    0.000000
   -4   -4    0    5    8   -0.000196   -0.000000
   -4   -4    0    6    8   -0.000009   -0.000000
   -4   -4    0    7    8    0.000180    0.000000
   -4   -4    0    8    8   -0.000299   -0.000000
   -4   -4    0    9    8    0.000153    0.000000
   -4   -4    0   10    8   -0.000215   -0.000000
   -4   -4    0   11    8    0.000109    0.000000
   -4   -4    0    1    9    0.001178   -0.000000
   -4   -4    0    2    9    0.000177   -0.000000
   -4   -4    0    3    9    0.000038   -0.000000
   -4   -4    0    4    9   -0.001734    0.000000
   -4   -4    0    5    9    0.000965    0.000000
   -4   -4    0    6    9    0.000371   -0.000000
   -4   -4    0    7    9   -0.000366    0.000000
   -4   -4    0    8    9    0.000153    0.000000
   -4   -4    0    9    9   -0.000490   -0.000000
   -4   -4    0   10    9   -0.000154   -0.000000
   -4   -4    0   11    9    0.000009    0.000000
   -4   -4    0    1   10   -0.000699    0.000000
   -4   -4    0    2   10    0.001968   -0.000000
   -4   -4    0    3   10    0.001497    0.000000
   -4   -4    0    4   10    0.000707   -0.000000
   -4   -4    0    5   10   -0.001003   -0.000000
   -4   -4    0    6   10   -0.000366    0.000000
   -4   -4    0    7   10    0.000046   -0.000000
   -4   -4    0    8   10    0.000215   -0.000000
   -4   -4    0    9   10    0.000154    0.000000
   -4   -4    0   10   10    0.003003    0.000000
   -4   -4    0   11   10   -0.000180    0.000000
   -4   -4    0    1   11   -0.000484    0.000000
   -4   -4    0    2   11    0.000167    0.000000
   -4   -4    0    3   11    0.000143   -0.000000
   -4   -4    0    4   11    0.000358    0.000000
   -4   -4    0    5   11   -0.000196   -0.000000
   -4   -4    0    6   11   -0.000153   -0.000000
   -4   -4    0    7   11   -0.000215   -0.000000
   -4   -4    0    8   11    0.000109    0.000000
   -4   -4    0    9   11    0.000009    0.000000
   -4   -4    0   10   11    0.000180    0.000000
   -4   -4    0   11   11   -0.000299   -0.000000
   -4   -3    0    1    1    0.000653    0.000000
   -4   -3    0    2    1   -0.000000    0.000000
   -4   -3    0    3    1   -0.000000    0.000000
   -4   -3    0    4    1   -0.000117   -0.000000
   -4   -3    0    5    1    0.001099   -0.000000
   -4   -3    0    6    1    0.000381    0.000000
   -4   -3    0    7    1   -0.000126    0.000000
   -4   -3    0    8    1    0.000012   -0.000000
   -4   -3    0    9    1   -0.000381   -0.000000
   -4   -3    0   10    1   -0.000126    0.000000
   -4   -3    0   11    1    0.000012   -0.000000
   -4   -3    0    1    2    0.000000    0.000000
   -4   -3    0    2    2   -0.001103    0.000000
   -4   -3    0    3    2   -0.000159    0.000000
   -4   -3    0    4    2   -0.000000    0.000000
   -4   -3    0    5    2    0.000000   -0.000000
   -4   -3    0    6    2   -0.000068    0.000000
   -4   -3    0    7    2    0.000614    0.000000
   -4   -3    0    8    2   -0.000214    0.000000
   -4   -3    0    9    2   -0.000068    0.000000
   -4   -3    0   10    2   -0.000614   -0.000000
   -4   -3    0   11    2    0.000214    0.000000
   -4   -3    0    1    3    0.000000    0.000000
   -4   -3    0    2    3    0.000592    0.000000
   -4   -3    0    3    3   -0.000050   -0.000000
   -4   -3    0    4    3    0.000000    0.000000
   -4   -3    0    5    3   -0.000000   -0.000000
   -4   -3    0    6    3    0.000035    0.000000
   -4   -3    0    7    3   -0.000293    0.000000
   -4   -3    0    8    3    0.000112   -0.000000
   -4   -3    0    9    3    0.000035    0.000000
   -4   -3    0   10    3    0.000293   -0.000000
   -4   -3    0   11    3   -0.000112    0.000000
   -4   -3    0    1    4   -0.000594   -0.000000
   -4   -3    0    2    4    0.000000   -0.000000
   -4   -3    0    3    4    0.000000    0.000000
   -4   -3    0    4    4    0.000952    0.000000
   -4   -3    0    5    4   -0.001182   -0.000000
   -4   -3    0    6    4   -0.000484    0.000000
   -4   -3    0    7    4    0.000244    0.000000
   -4   -3    0    8    4   -0.000051    0.000000
   -4   -3    0    9    4    0.000484   -0.000000
   -4   -3    0   10    4    0.000244   -0.000000
   -4   -3    0   11    4   -0.000051    0.000000
   -4   -3    0    1    5   -0.000289   -0.000000
   -4   -3    0    2    5   -0.000000   -0.000000
   -4   -3    0    3    5   -0.000000   -0.000000
   -4   -3    0    4    5    0.000331   -0.000000
   -4   -3    0    5    5   -0.000157   -0.000000
   -4   -3    0    6    5   -0.000264    0.000000
   -4   -3    0    7    5    0.000056    0.000000
   -4   -3    0    8    5   -0.000006   -0.000000
   -4   -3    0    9    5    0.000264   -0.000000
   -4   -3    0   10    5    0.000056    0.000000
   -4   -3    0   11    5   -0.000006   -0.000000
   -4   -3    0    1    6    0.000336   -0.000000
   -4   -3    0    2    6   -0.001178   -0.000000
   -4   -3    0    3    6   -0.000152    0.000000
   -4   -3    0    4    6   -0.000183    0.000000
   -4   -3    0    5    6    0.000930    0.000000
   -4   -3    0    6    6    0.000065    0.000000
   -4   -3    0    7    6    0.000444    0.000000
   -4   -3    0    8    6   -0.000408   -0.000000
   -4   -3    0    9    6   -0.000248   -0.000000
   -4   -3    0   10    6   -0.000409   -0.000000
   -4   -3    0   11    6    0.000244    0.000000
   -4   -3    0    1    7    0.001267   -0.000000
   -4   -3    0    2    7    0.001189    0.000000
   -4   -3    0    3    7    0.000066    0.000000
   -4   -3    0    4    7   -0.000179    0.000000
   -4   -3    0    5    7    0.001761   -0.000000
   -4   -3    0    6    7    0.000469    0.000000
   -4   -3    0    7    7   -0.000540   -0.000000
   -4   -3    0    8    7   -0.000418   -0.000000
   -4   -3    0    9    7   -0.000480   -0.000000
   -4   -3    0   10    7    0.001069    0.000000
   -4   -3    0   11    7    0.000029    0.000000
   -4   -3    0    1    8   -0.000169    0.000000
   -4   -3    0    2    8    0.000604    0.000000
   -4   -3    0    3    8    0.000953   -0.000000
   -4   -3    0    4    8    0.000314   -0.000000
   -4   -3    0    5    8   -0.000900   -0.000000
   -4   -3    0    6    8   -0.000342   -0.000000
   -4   -3    0    7    8   -0.000494   -0.000000
   -4   -3    0    8    8   -0.000284    0.000000
   -4   -3    0    9    8    0.000235    0.000000
   -4   -3    0   10    8    0.000478    0.000000
   -4   -3    0   11    8    0.000072   -0.000000
   -4   -3    0    1    9   -0.000336    0.000000
   -4   -3    0    2    9   -0.001178    0.000000
   -4   -3    0    3    9   -0.000152    0.000000
   -4   -3    0    4    9    0.000183   -0.000000
   -4   -3    0    5    9   -0.000930   -0.000000
   -4   -3    0    6    9   -0.000248    0.000000
   -4   -3    0    7    9    0.000409    0.000000
   -4   -3    0    8    9   -0.000244   -0.000000
   -4   -3    0    9    9    0.000065    0.000000
   -4   -3    0   10    9   -0.000444   -0.000000
   -4   -3    0   11    9    0.000408    0.000000
   -4   -3    0    1   10    0.001267   -0.000000
   -4   -3    0    2   10   -0.001189   -0.000000
   -4   -3    0    3   10   -0.000066   -0.000000
   -4   -3    0    4   10   -0.000179    0.000000
   -4   -3    0    5   10    0.001761   -0.000000
   -4   -3    0    6   10    0.000480    0.000000
   -4   -3    0    7   10    0.001069    0.000000
   -4   -3    0    8   10    0.000029    0.000000
   -4   -3    0    9   10   -0.000469   -0.000000
   -4   -3    0   10   10   -0.000539   -0.000000
   -4   -3    0   11   10   -0.000418   -0.000000
   -4   -3    0    1   11   -0.000169    0.000000
   -4   -3    0    2   11   -0.000604    0.000000
   -4   -3    0    3   11   -0.000953   -0.000000
   -4   -3    0    4   11    0.000314   -0.000000
   -4   -3    0    5   11   -0.000900   -0.000000
   -4   -3    0    6   11   -0.000235   -0.000000
   -4   -3    0    7   11    0.000478    0.000000
   -4   -3    0    8   11    0.000072   -0.000000
   -4   -3    0    9   11    0.000342    0.000000
   -4   -3    0   10   11   -0.000494   -0.000000
   -4   -3    0   11   11   -0.000284    0.000000
   -4   -2    0    1    1    0.000265   -0.000000
   -4   -2    0    2    1   -0.000000   -0.000000
   -4   -2    0    3    1    0.000000    0.000000
   -4   -2    0    4    1   -0.001077   -0.000000
   -4   -2    0    5    1    0.001893    0.000000
   -4   -2    0    6    1    0.000719   -0.000000
   -4   -2    0    7    1   -0.000102   -0.000000
   -4   -2    0    8    1    0.000068    0.000000
   -4   -2    0    9    1   -0.000719   -0.000000
   -4   -2    0   10    1   -0.000102   -0.000000
   -4   -2    0   11    1    0.000068    0.000000
   -4   -2    0    1    2    0.000000    0.000000
   -4   -2    0    2    2    0.000583   -0.000000
   -4   -2    0    3    2    0.000056    0.000000
   -4   -2    0    4    2    0.000000   -0.000000
   -4   -2    0    5    2    0.000000   -0.000000
   -4   -2    0    6    2   -0.000235   -0.000000
   -4   -2    0    7    2   -0.000805   -0.000000
   -4   -2    0    8    2    0.000415    0.000000
   -4   -2    0    9    2   -0.000235   -0.000000
   -4   -2    0   10    2    0.000805    0.000000
   -4   -2    0   11    2   -0.000415   -0.000000
   -4   -2    0    1    3   -0.000000   -0.000000
   -4   -2    0    2    3    0.000052    0.000000
   -4   -2    0    3    3    0.000635    0.000000
   -4   -2    0    4    3    0.000000   -0.000000
   -4   -2    0    5    3   -0.000000   -0.000000
   -4   -2    0    6    3    0.000133    0.000000
   -4   -2    0    7    3    0.000420    0.000000
   -4   -2    0    8    3   -0.000316    0.000000
   -4   -2    0    9    3    0.000133    0.000000
   -4   -2    0   10    3   -0.000420   -0.000000
   -4   -2    0   11    3    0.000316   -0.000000
   -4   -2    0    1    4   -0.000424    0.000000
   -4   -2    0    2    4   -0.000000    0.000000
   -4   -2    0    3    4   -0.000000    0.000000
   -4   -2    0    4    4    0.000287   -0.000000
   -4   -2    0    5    4   -0.000656    0.000000
   -4   -2    0    6    4   -0.000312   -0.000000
   -4   -2    0    7    4    0.000114   -0.000000
   -4   -2    0    8    4   -0.000042    0.000000
   -4   -2    0    9    4    0.000312   -0.000000
   -4   -2    0   10    4    0.000114   -0.000000
   -4   -2    0   11    4   -0.000042    0.000000
   -4   -2    0    1    5    0.000770   -0.000000
   -4   -2    0    2    5   -0.000000    0.000000
   -4   -2    0    3    5   -0.000000    0.000000
   -4   -2    0    4    5   -0.000698    0.000000
   -4   -2    0    5    5    0.001237   -0.000000
   -4   -2    0    6    5    0.000613    0.000000
   -4   -2    0    7    5   -0.000178    0.000000
   -4   -2    0    8    5    0.000132   -0.000000
   -4   -2    0    9    5   -0.000613    0.000000
   -4   -2    0   10    5   -0.000178    0.000000
   -4   -2    0   11    5    0.000132   -0.000000
   -4   -2    0    1    6    0.001486    0.000000
   -4   -2    0    2    6    0.000244    0.000000
   -4   -2    0    3    6   -0.000121   -0.000000
   -4   -2    0    4    6   -0.001453    0.000000
   -4   -2    0    5    6    0.002646   -0.000000
   -4   -2    0    6    6    0.000766    0.000000
   -4   -2    0    7    6   -0.000571   -0.000000
   -4   -2    0    8    6    0.000324    0.000000
   -4   -2    0    9    6   -0.001015    0.000000
   -4   -2    0   10    6    0.000374    0.000000
   -4   -2    0   11    6   -0.000175   -0.000000
   -4   -2    0    1    7    0.000187    0.000000
   -4   -2    0    2    7   -0.000965    0.000000
   -4   -2    0    3    7    0.000362   -0.000000
   -4   -2    0    4    7   -0.001608    0.000000
   -4   -2    0    5    7    0.002927   -0.000000
   -4   -2    0    6    7    0.000540    0.000000
   -4   -2    0    7    7    0.001036    0.000000
   -4   -2    0    8    7   -0.000318    0.000000
   -4   -2    0    9    7   -0.000598    0.000000
   -4   -2    0   10    7   -0.000834    0.000000
   -4   -2    0   11    7   -0.000161   -0.000000
   -4   -2    0    1    8   -0.000093   -0.000000
   -4   -2    0    2    8    0.000383   -0.000000
   -4   -2    0    3    8   -0.000513   -0.000000
   -4   -2    0    4    8    0.001060   -0.000000
   -4   -2    0    5    8   -0.001533    0.000000
   -4   -2    0    6    8   -0.000304   -0.000000
   -4   -2    0    7    8   -0.000334   -0.000000
   -4   -2    0    8    8    0.000680    0.000000
   -4   -2    0    9    8    0.000308   -0.000000
   -4   -2    0   10    8   -0.000161   -0.000000
   -4   -2    0   11    8   -0.001046    0.000000
   -4   -2    0    1    9   -0.001486   -0.000000
   -4   -2    0    2    9    0.000244    0.000000
   -4   -2    0    3    9   -0.000121   -0.000000
   -4   -2    0    4    9    0.001453    0.000000
   -4   -2    0    5    9   -0.002646   -0.000000
   -4   -2    0    6    9   -0.001015   -0.000000
   -4   -2    0    7    9   -0.000374   -0.000000
   -4   -2    0    8    9    0.000175    0.000000
   -4   -2    0    9    9    0.000766    0.000000
   -4   -2    0   10    9    0.000571    0.000000
   -4   -2    0   11    9   -0.000324   -0.000000
   -4   -2    0    1   10    0.000187    0.000000
   -4   -2    0    2   10    0.000965   -0.000000
   -4   -2    0    3   10   -0.000362    0.000000
   -4   -2    0    4   10   -0.001608    0.000000
   -4   -2    0    5   10    0.002927   -0.000000
   -4   -2    0    6   10    0.000598   -0.000000
   -4   -2    0    7   10   -0.000834    0.000000
   -4   -2    0    8   10   -0.000161   -0.000000
   -4   -2    0    9   10   -0.000540   -0.000000
   -4   -2    0   10   10    0.001036    0.000000
   -4   -2    0   11   10   -0.000318    0.000000
   -4   -2    0    1   11   -0.000093   -0.000000
   -4   -2    0    2   11   -0.000383    0.000000
   -4   -2    0    3   11    0.000513    0.000000
   -4   -2    0    4   11    0.001060   -0.000000
   -4   -2    0    5   11   -0.001533    0.000000
   -4   -2    0    6   11   -0.000308    0.000000
   -4   -2    0    7   11   -0.000161    0.000000
   -4   -2    0    8   11   -0.001046    0.000000
   -4   -2    0    9   11    0.000304    0.000000
   -4   -2    0   10   11   -0.000334    0.000000
   -4   -2    0   11   11    0.000680    0.000000
   -4   -1    0    1    1    0.000627   -0.000000
   -4   -1    0    2    1    0.000000   -0.000000
   -4   -1    0    3    1    0.000000   -0.000000
   -4   -1    0    4    1   -0.000813    0.000000
   -4   -1    0    5    1    0.000548    0.000000
   -4   -1    0    6    1    0.000330    0.000000
   -4   -1    0    7    1   -0.000058    0.000000
   -4   -1    0    8    1    0.000092    0.000000
   -4   -1    0    9    1   -0.000330   -0.000000
   -4   -1    0   10    1   -0.000058    0.000000
   -4   -1    0   11    1    0.000092   -0.000000
   -4   -1    0    1    2    0.000000   -0.000000
   -4   -1    0    2    2   -0.000494   -0.000000
   -4   -1    0    3    2    0.000936   -0.000000
   -4   -1    0    4    2    0.000000    0.000000
   -4   -1    0    5    2    0.000000    0.000000
   -4   -1    0    6    2   -0.000062    0.000000
   -4   -1    0    7    2    0.000451   -0.000000
   -4   -1    0    8    2   -0.000390   -0.000000
   -4   -1    0    9    2   -0.000062   -0.000000
   -4   -1    0   10    2   -0.000451    0.000000
   -4   -1    0   11    2    0.000390   -0.000000
   -4   -1    0    1    3   -0.000000   -0.000000
   -4   -1    0    2    3    0.000178   -0.000000
   -4   -1    0    3    3   -0.000652    0.000000
   -4   -1    0    4    3   -0.000000   -0.000000
   -4   -1    0    5    3   -0.000000    0.000000
   -4   -1    0    6    3    0.000039   -0.000000
   -4   -1    0    7    3   -0.000303   -0.000000
   -4   -1    0    8    3    0.000268    0.000000
   -4   -1    0    9    3    0.000039   -0.000000
   -4   -1    0   10    3    0.000303    0.000000
   -4   -1    0   11    3   -0.000268   -0.000000
   -4   -1    0    1    4    0.000566    0.000000
   -4   -1    0    2    4    0.000000    0.000000
   -4   -1    0    3    4   -0.000000   -0.000000
   -4   -1    0    4    4   -0.000270   -0.000000
   -4   -1    0    5    4    0.001072    0.000000
   -4   -1    0    6    4    0.000491   -0.000000
   -4   -1    0    7    4   -0.000105   -0.000000
   -4   -1    0    8    4    0.000150    0.000000
   -4   -1    0    9    4   -0.000491    0.000000
   -4   -1    0   10    4   -0.000105   -0.000000
   -4   -1    0   11    4    0.000150   -0.000000
   -4   -1    0    1    5    0.000396    0.000000
   -4   -1    0    2    5    0.000000    0.000000
   -4   -1    0    3    5    0.000000    0.000000
   -4   -1    0    4    5   -0.000490    0.000000
   -4   -1    0    5    5    0.001111    0.000000
   -4   -1    0    6    5    0.000308   -0.000000
   -4   -1    0    7    5   -0.000125    0.000000
   -4   -1    0    8    5    0.000149    0.000000
   -4   -1    0    9    5   -0.000308    0.000000
   -4   -1    0   10    5   -0.000125    0.000000
   -4   -1    0   11    5    0.000149    0.000000
   -4   -1    0    1    6    0.000363   -0.000000
   -4   -1    0    2    6   -0.000474   -0.000000
   -4   -1    0    3    6    0.001053   -0.000000
   -4   -1    0    4    6   -0.000695   -0.000000
   -4   -1    0    5    6    0.000590   -0.000000
   -4   -1    0    6    6    0.000045   -0.000000
   -4   -1    0    7    6    0.000582   -0.000000
   -4   -1    0    8    6   -0.000147    0.000000
   -4   -1    0    9    6   -0.000234   -0.000000
   -4   -1    0   10    6   -0.000397   -0.000000
   -4   -1    0   11    6    0.000208    0.000000
   -4   -1    0    1    7    0.000826   -0.000000
   -4   -1    0    2    7    0.000681   -0.000000
   -4   -1    0    3    7    0.000356   -0.000000
   -4   -1    0    4    7   -0.001218   -0.000000
   -4   -1    0    5    7    0.001169   -0.000000
   -4   -1    0    6    7    0.000529   -0.000000
   -4   -1    0    7    7    0.000063    0.000000
   -4   -1    0    8    7   -0.000152    0.000000
   -4   -1    0    9    7   -0.000448   -0.000000
   -4   -1    0   10    7    0.000093   -0.000000
   -4   -1    0   11    7   -0.000065   -0.000000
   -4   -1    0    1    8   -0.001027    0.000000
   -4   -1    0    2    8   -0.000215    0.000000
   -4   -1    0    3    8    0.001447    0.000000
   -4   -1    0    4    8    0.000838   -0.000000
   -4   -1    0    5    8   -0.000521    0.000000
   -4   -1    0    6    8   -0.000202    0.000000
   -4   -1    0    7    8   -0.000069    0.000000
   -4   -1    0    8    8   -0.000881   -0.000000
   -4   -1    0    9    8    0.000297    0.000000
   -4   -1    0   10    8   -0.000558   -0.000000
   -4   -1    0   11    8    0.001054    0.000000
   -4   -1    0    1    9   -0.000363   -0.000000
   -4   -1    0    2    9   -0.000474   -0.000000
   -4   -1    0    3    9    0.001053   -0.000000
   -4   -1    0    4    9    0.000695    0.000000
   -4   -1    0    5    9   -0.000590    0.000000
   -4   -1    0    6    9   -0.000234    0.000000
   -4   -1    0    7    9    0.000397    0.000000
   -4   -1    0    8    9   -0.000208   -0.000000
   -4   -1    0    9    9    0.000045    0.000000
   -4   -1    0   10    9   -0.000582    0.000000
   -4   -1    0   11    9    0.000147   -0.000000
   -4   -1    0    1   10    0.000826   -0.000000
   -4   -1    0    2   10   -0.000681    0.000000
   -4   -1    0    3   10   -0.000356    0.000000
   -4   -1    0    4   10   -0.001218   -0.000000
   -4   -1    0    5   10    0.001169   -0.000000
   -4   -1    0    6   10    0.000448    0.000000
   -4   -1    0    7   10    0.000093   -0.000000
   -4   -1    0    8   10   -0.000065   -0.000000
   -4   -1    0    9   10   -0.000529    0.000000
   -4   -1    0   10   10    0.000063    0.000000
   -4   -1    0   11   10   -0.000152    0.000000
   -4   -1    0    1   11   -0.001027    0.000000
   -4   -1    0    2   11    0.000215   -0.000000
   -4   -1    0    3   11   -0.001447   -0.000000
   -4   -1    0    4   11    0.000838   -0.000000
   -4   -1    0    5   11   -0.000521    0.000000
   -4   -1    0    6   11   -0.000297   -0.000000
   -4   -1    0    7   11   -0.000558   -0.000000
   -4   -1    0    8   11    0.001054    0.000000
   -4   -1    0    9   11    0.000202   -0.000000
   -4   -1    0   10   11   -0.000069    0.000000
   -4   -1    0   11   11   -0.000881   -0.000000
   -4    0    0    1    1    0.000246    0.000000
   -4    0    0    2    1    0.000000    0.000000
   -4    0    0    3    1    0.000000    0.000000
   -4    0    0    4    1   -0.000037   -0.000000
   -4    0    0    5    1    0.000342   -0.000000
   -4    0    0    6    1    0.000174   -0.000000
   -4    0    0    7    1   -0.000175   -0.000000
   -4    0    0    8    1   -0.000081   -0.000000
   -4    0    0    9    1   -0.000174    0.000000
   -4    0    0   10    1   -0.000175   -0.000000
   -4    0    0   11    1   -0.000081   -0.000000
   -4    0    0    1    2    0.000000   -0.000000
   -4    0    0    2    2   -0.000255    0.000000
   -4    0    0    3    2   -0.001140    0.000000
   -4    0    0    4    2    0.000000   -0.000000
   -4    0    0    5    2    0.000000   -0.000000
   -4    0    0    6    2   -0.000117    0.000000
   -4    0    0    7    2   -0.000399   -0.000000
   -4    0    0    8    2    0.000348    0.000000
   -4    0    0    9    2   -0.000117    0.000000
   -4    0    0   10    2    0.000399    0.000000
   -4    0    0   11    2   -0.000348   -0.000000
   -4    0    0    1    3   -0.000000    0.000000
   -4    0    0    2    3   -0.000386    0.000000
   -4    0    0    3    3    0.000644   -0.000000
   -4    0    0    4    3   -0.000000   -0.000000
   -4    0    0    5    3   -0.000000   -0.000000
   -4    0    0    6    3   -0.000051    0.000000
   -4    0    0    7    3    0.000350    0.000000
   -4    0    0    8    3   -0.000804   -0.000000
   -4    0    0    9    3   -0.000051    0.000000
   -4    0    0   10    3   -0.000350   -0.000000
   -4    0    0   11    3    0.000804    0.000000
   -4    0    0    1    4    0.000376   -0.000000
   -4    0    0    2    4    0.000000    0.000000
   -4    0    0    3    4    0.000000    0.000000
   -4    0    0    4    4   -0.000015    0.000000
   -4    0    0    5    4    0.000866   -0.000000
   -4    0    0    6    4    0.000228    0.000000
   -4    0    0    7    4    0.000105    0.000000
   -4    0    0    8    4   -0.000251   -0.000000
   -4    0    0    9    4   -0.000228   -0.000000
   -4    0    0   10    4    0.000105    0.000000
   -4    0    0   11    4   -0.000251   -0.000000
   -4    0    0    1    5    0.000169   -0.000000
   -4    0    0    2    5   -0.000000   -0.000000
   -4    0    0    3    5    0.000000   -0.000000
   -4    0    0    4    5   -0.000338   -0.000000
   -4    0    0    5    5    0.000269   -0.000000
   -4    0    0    6    5    0.000375    0.000000
   -4    0    0    7    5   -0.000121    0.000000
   -4    0    0    8    5    0.000117    0.000000
   -4    0    0    9    5   -0.000375   -0.000000
   -4    0    0   10    5   -0.000121    0.000000
   -4    0    0   11    5    0.000117    0.000000
   -4    0    0    1    6   -0.001118    0.000000
   -4    0    0    2    6    0.000061    0.000000
   -4    0    0    3    6   -0.000131    0.000000
   -4    0    0    4    6   -0.000104    0.000000
   -4    0    0    5    6   -0.002075    0.000000
   -4    0    0    6    6   -0.000494   -0.000000
   -4    0    0    7    6    0.000113    0.000000
   -4    0    0    8    6   -0.000183    0.000000
   -4    0    0    9    6    0.000387    0.000000
   -4    0    0   10    6    0.000303   -0.000000
   -4    0    0   11    6   -0.000251    0.000000
   -4    0    0    1    7    0.000045   -0.000000
   -4    0    0    2    7    0.000129    0.000000
   -4    0    0    3    7    0.001029   -0.000000
   -4    0    0    4    7    0.000269    0.000000
   -4    0    0    5    7   -0.000232    0.000000
   -4    0    0    6    7   -0.000052   -0.000000
   -4    0    0    7    7    0.000513   -0.000000
   -4    0    0    8    7   -0.001247   -0.000000
   -4    0    0    9    7    0.000049   -0.000000
   -4    0    0   10    7    0.000103    0.000000
   -4    0    0   11    7   -0.000195    0.000000
   -4    0    0    1    8    0.000789   -0.000000
   -4    0    0    2    8   -0.000274   -0.000000
   -4    0    0    3    8   -0.002228    0.000000
   -4    0    0    4    8   -0.000395   -0.000000
   -4    0    0    5    8    0.001141    0.000000
   -4    0    0    6    8    0.000095    0.000000
   -4    0    0    7    8   -0.001595   -0.000000
   -4    0    0    8    8    0.002186    0.000000
   -4    0    0    9    8   -0.000373   -0.000000
   -4    0    0   10    8    0.000249    0.000000
   -4    0    0   11    8    0.000061   -0.000000
   -4    0    0    1    9    0.001118   -0.000000
   -4    0    0    2    9    0.000061   -0.000000
   -4    0    0    3    9   -0.000131    0.000000
   -4    0    0    4    9    0.000104   -0.000000
   -4    0    0    5    9    0.002075   -0.000000
   -4    0    0    6    9    0.000387   -0.000000
   -4    0    0    7    9   -0.000303   -0.000000
   -4    0    0    8    9    0.000251   -0.000000
   -4    0    0    9    9   -0.000494   -0.000000
   -4    0    0   10    9   -0.000113   -0.000000
   -4    0    0   11    9    0.000183   -0.000000
   -4    0    0    1   10    0.000045   -0.000000
   -4    0    0    2   10   -0.000129   -0.000000
   -4    0    0    3   10   -0.001029    0.000000
   -4    0    0    4   10    0.000269    0.000000
   -4    0    0    5   10   -0.000232    0.000000
   -4    0    0    6   10   -0.000049    0.000000
   -4    0    0    7   10    0.000103    0.000000
   -4    0    0    8   10   -0.000195    0.000000
   -4    0    0    9   10    0.000052    0.000000
   -4    0    0   10   10    0.000513   -0.000000
   -4    0    0   11   10   -0.001247   -0.000000
   -4    0    0    1   11    0.000789   -0.000000
   -4    0    0    2   11    0.000274    0.000000
   -4    0    0    3   11    0.002228    0.000000
   -4    0    0    4   11   -0.000395   -0.000000
   -4    0    0    5   11    0.001141    0.000000
   -4    0    0    6   11    0.000373    0.000000
   -4    0    0    7   11    0.000249    0.000000
   -4    0    0    8   11    0.000061   -0.000000
   -4    0    0    9   11   -0.000095   -0.000000
   -4    0    0   10   11   -0.001595   -0.000000
   -4    0    0   11   11    0.002186    0.000000
   -4    1    0    1    1    0.000008   -0.000000
   -4    1    0    2    1   -0.000000    0.000000
   -4    1    0    3    1   -0.000000   -0.000000
   -4    1    0    4    1   -0.000106    0.000000
   -4    1    0    5    1   -0.000166    0.000000
   -4    1    0    6    1    0.000085    0.000000
   -4    1    0    7    1    0.000031    0.000000
   -4    1    0    8    1   -0.000158   -0.000000
   -4    1    0    9    1   -0.000085   -0.000000
   -4    1    0   10    1    0.000031    0.000000
   -4    1    0   11    1   -0.000158   -0.000000
   -4    1    0    1    2   -0.000000   -0.000000
   -4    1    0    2    2    0.000044   -0.000000
   -4    1    0    3    2    0.000192   -0.000000
   -4    1    0    4    2    0.000000   -0.000000
   -4    1    0    5    2   -0.000000    0.000000
   -4    1    0    6    2    0.000107    0.000000
   -4    1    0    7    2    0.000222    0.000000
   -4    1    0    8    2   -0.000125    0.000000
   -4    1    0    9    2    0.000107    0.000000
   -4    1    0   10    2   -0.000222   -0.000000
   -4    1    0   11    2    0.000125   -0.000000
   -4    1    0    1    3   -0.000000   -0.000000
   -4    1    0    2    3    0.000194   -0.000000
   -4    1    0    3    3   -0.000191    0.000000
   -4    1    0    4    3   -0.000000    0.000000
   -4    1    0    5    3    0.000000    0.000000
   -4    1    0    6    3   -0.000024    0.000000
   -4    1    0    7    3    0.000058   -0.000000
   -4    1    0    8    3    0.000746   -0.000000
   -4    1    0    9    3   -0.000024    0.000000
   -4    1    0   10    3   -0.000058    0.000000
   -4    1    0   11    3   -0.000746    0.000000
   -4    1    0    1    4    0.000049    0.000000
   -4    1    0    2    4    0.000000   -0.000000
   -4    1    0    3    4   -0.000000   -0.000000
   -4    1    0    4    4    0.000092   -0.000000
   -4    1    0    5    4   -0.000273    0.000000
   -4    1    0    6    4   -0.000047   -0.000000
   -4    1    0    7    4    0.000287    0.000000
   -4    1    0    8    4   -0.000161   -0.000000
   -4    1    0    9    4    0.000047    0.000000
   -4    1    0   10    4    0.000287    0.000000
   -4    1    0   11    4   -0.000161   -0.000000
   -4    1    0    1    5    0.000111    0.000000
   -4    1    0    2    5   -0.000000   -0.000000
   -4    1    0    3    5    0.000000    0.000000
   -4    1    0    4    5   -0.000248    0.000000
   -4    1    0    5    5   -0.000219    0.000000
   -4    1    0    6    5    0.000205   -0.000000
   -4    1    0    7    5   -0.000014    0.000000
   -4    1    0    8    5   -0.000241    0.000000
   -4    1    0    9    5   -0.000205   -0.000000
   -4    1    0   10    5   -0.000014    0.000000
   -4    1    0   11    5   -0.000241    0.000000
   -4    1    0    1    6    0.000360   -0.000000
   -4    1    0    2    6   -0.000000   -0.000000
   -4    1    0    3    6   -0.000093    0.000000
   -4    1    0    4    6    0.000051   -0.000000
   -4    1    0    5    6    0.000571   -0.000000
   -4    1    0    6    6    0.000239   -0.000000
   -4    1    0    7    6   -0.000132   -0.000000
   -4    1    0    8    6   -0.000070    0.000000
   -4    1    0    9    6   -0.000130   -0.000000
   -4    1    0   10    6   -0.000121   -0.000000
   -4    1    0   11    6   -0.000079    0.000000
   -4    1    0    1    7    0.000050   -0.000000
   -4    1    0    2    7    0.000011    0.000000
   -4    1    0    3    7   -0.000135   -0.000000
   -4    1    0    4    7    0.000025    0.000000
   -4    1    0    5    7    0.000086    0.000000
   -4    1    0    6    7   -0.000059    0.000000
   -4    1    0    7    7    0.000011    0.000000
   -4    1    0    8    7    0.000115    0.000000
   -4    1    0    9    7   -0.000005   -0.000000
   -4    1    0   10    7    0.000118   -0.000000
   -4    1    0   11    7   -0.000359   -0.000000
   -4    1    0    1    8   -0.000091    0.000000
   -4    1    0    2    8   -0.000056    0.000000
   -4    1    0    3    8    0.000706   -0.000000
   -4    1    0    4    8   -0.000077   -0.000000
   -4    1    0    5    8   -0.000217    0.000000
   -4    1    0    6    8   -0.000029    0.000000
   -4    1    0    7    8    0.000112    0.000000
   -4    1    0    8    8   -0.000132   -0.000000
   -4    1    0    9    8    0.000004    0.000000
   -4    1    0   10    8   -0.000360   -0.000000
   -4    1    0   11    8    0.000533    0.000000
   -4    1    0    1    9   -0.000360    0.000000
   -4    1    0    2    9   -0.000000   -0.000000
   -4    1    0    3    9   -0.000093    0.000000
   -4    1    0    4    9   -0.000051   -0.000000
   -4    1    0    5    9   -0.000571    0.000000
   -4    1    0    6    9   -0.000130    0.000000
   -4    1    0    7    9    0.000121    0.000000
   -4    1    0    8    9    0.000079   -0.000000
   -4    1    0    9    9    0.000239    0.000000
   -4    1    0   10    9    0.000132    0.000000
   -4    1    0   11    9    0.000070   -0.000000
   -4    1    0    1   10    0.000050   -0.000000
   -4    1    0    2   10   -0.000011    0.000000
   -4    1    0    3   10    0.000135    0.000000
   -4    1    0    4   10    0.000025    0.000000
   -4    1    0    5   10    0.000086    0.000000
   -4    1    0    6   10    0.000005    0.000000
   -4    1    0    7   10    0.000118   -0.000000
   -4    1    0    8   10   -0.000359   -0.000000
   -4    1    0    9   10    0.000059   -0.000000
   -4    1    0   10   10    0.000011    0.000000
   -4    1    0   11   10    0.000115    0.000000
   -4    1    0    1   11   -0.000091    0.000000
   -4    1    0    2   11    0.000056   -0.000000
   -4    1    0    3   11   -0.000706    0.000000
   -4    1    0    4   11   -0.000077   -0.000000
   -4    1    0    5   11   -0.000217    0.000000
   -4    1    0    6   11   -0.000004   -0.000000
   -4    1    0    7   11   -0.000360   -0.000000
   -4    1    0    8   11    0.000533    0.000000
   -4    1    0    9   11    0.000029   -0.000000
   -4    1    0   10   11    0.000112    0.000000
   -4    1    0   11   11   -0.000132   -0.000000
   -3   -5    0    1    1   -0.000217   -0.000000
   -3   -5    0    2    1   -0.000000   -0.000000
   -3   -5    0    3    1   -0.000000   -0.000000
   -3   -5    0    4    1    0.000068    0.000000
   -3   -5    0    5    1    0.000093    0.000000
   -3   -5    0    6    1    0.000054    0.000000
   -3   -5    0    7    1   -0.000000    0.000000
   -3   -5    0    8    1   -0.000042   -0.000000
   -3   -5    0    9    1   -0.000054   -0.000000
   -3   -5    0   10    1   -0.000000    0.000000
   -3   -5    0   11    1   -0.000042   -0.000000
   -3   -5    0    1    2    0.000000   -0.000000
   -3   -5    0    2    2    0.000303   -0.000000
   -3   -5    0    3    2    0.000043   -0.000000
   -3   -5    0    4    2   -0.000000    0.000000
   -3   -5    0    5    2    0.000000    0.000000
   -3   -5    0    6    2    0.000000    0.000000
   -3   -5    0    7    2   -0.000254   -0.000000
   -3   -5    0    8    2   -0.000000   -0.000000
   -3   -5    0    9    2    0.000000   -0.000000
   -3   -5    0   10    2    0.000254    0.000000
   -3   -5    0   11    2    0.000000   -0.000000
   -3   -5    0    1    3   -0.000000   -0.000000
   -3   -5    0    2    3   -0.000040   -0.000000
   -3   -5    0    3    3   -0.000021    0.000000
   -3   -5    0    4    3    0.000000   -0.000000
   -3   -5    0    5    3   -0.000000    0.000000
   -3   -5    0    6    3    0.000035   -0.000000
   -3   -5    0    7    3   -0.000000   -0.000000
   -3   -5    0    8    3    0.000021    0.000000
   -3   -5    0    9    3    0.000035   -0.000000
   -3   -5    0   10    3    0.000000    0.000000
   -3   -5    0   11    3   -0.000021   -0.000000
   -3   -5    0    1    4    0.000106    0.000000
   -3   -5    0    2    4   -0.000000    0.000000
   -3   -5    0    3    4   -0.000000   -0.000000
   -3   -5    0    4    4   -0.000240   -0.000000
   -3   -5    0    5    4    0.000102    0.000000
   -3   -5    0    6    4    0.000011   -0.000000
   -3   -5    0    7    4    0.000000   -0.000000
   -3   -5    0    8    4    0.000098    0.000000
   -3   -5    0    9    4   -0.000011    0.000000
   -3   -5    0   10    4    0.000000   -0.000000
   -3   -5    0   11    4    0.000098   -0.000000
   -3   -5    0    1    5    0.000645    0.000000
   -3   -5    0    2    5   -0.000000    0.000000
   -3   -5    0    3    5   -0.000000    0.000000
   -3   -5    0    4    5   -0.000530    0.000000
   -3   -5    0    5    5   -0.000233    0.000000
   -3   -5    0    6    5   -0.000000   -0.000000
   -3   -5    0    7    5    0.000283    0.000000
   -3   -5    0    8    5    0.000000    0.000000
   -3   -5    0    9    5   -0.000000    0.000000
   -3   -5    0   10    5    0.000283    0.000000
   -3   -5    0   11    5    0.000000    0.000000
   -3   -5    0    1    6    0.000719   -0.000000
   -3   -5    0    2    6    0.000235   -0.000000
   -3   -5    0    3    6    0.000133   -0.000000
   -3   -5    0    4    6   -0.000312   -0.000000
   -3   -5    0    5    6   -0.000613   -0.000000
   -3   -5    0    6    6   -0.000172   -0.000000
   -3   -5    0    7    6    0.000212   -0.000000
   -3   -5    0    8    6    0.000081    0.000000
   -3   -5    0    9    6    0.000223   -0.000000
   -3   -5    0   10    6    0.000238   -0.000000
   -3   -5    0   11    6    0.000083    0.000000
   -3   -5    0    1    7    0.000102   -0.000000
   -3   -5    0    2    7   -0.000805   -0.000000
   -3   -5    0    3    7   -0.000420   -0.000000
   -3   -5    0    4    7   -0.000114   -0.000000
   -3   -5    0    5    7   -0.000178   -0.000000
   -3   -5    0    6    7   -0.000010   -0.000000
   -3   -5    0    7    7    0.000594    0.000000
   -3   -5    0    8    7    0.000000    0.000000
   -3   -5    0    9    7    0.000113   -0.000000
   -3   -5    0   10    7   -0.000266   -0.000000
   -3   -5    0   11    7    0.000216   -0.000000
   -3   -5    0    1    8    0.000068    0.000000
   -3   -5    0    2    8   -0.000415   -0.000000
   -3   -5    0    3    8   -0.000316    0.000000
   -3   -5    0    4    8   -0.000042   -0.000000
   -3   -5    0    5    8   -0.000132    0.000000
   -3   -5    0    6    8   -0.000075    0.000000
   -3   -5    0    7    8    0.000117    0.000000
   -3   -5    0    8    8   -0.000076   -0.000000
   -3   -5    0    9    8    0.000004    0.000000
   -3   -5    0   10    8    0.000079   -0.000000
   -3   -5    0   11    8    0.000117    0.000000
   -3   -5    0    1    9   -0.000719    0.000000
   -3   -5    0    2    9    0.000235   -0.000000
   -3   -5    0    3    9    0.000133   -0.000000
   -3   -5    0    4    9    0.000312    0.000000
   -3   -5    0    5    9    0.000613    0.000000
   -3   -5    0    6    9    0.000223    0.000000
   -3   -5    0    7    9   -0.000238    0.000000
   -3   -5    0    8    9   -0.000083   -0.000000
   -3   -5    0    9    9   -0.000172   -0.000000
   -3   -5    0   10    9   -0.000212    0.000000
   -3   -5    0   11    9   -0.000081   -0.000000
   -3   -5    0    1   10    0.000102   -0.000000
   -3   -5    0    2   10    0.000805    0.000000
   -3   -5    0    3   10    0.000420    0.000000
   -3   -5    0    4   10   -0.000114   -0.000000
   -3   -5    0    5   10   -0.000178   -0.000000
   -3   -5    0    6   10   -0.000113    0.000000
   -3   -5    0    7   10   -0.000266   -0.000000
   -3   -5    0    8   10    0.000216   -0.000000
   -3   -5    0    9   10    0.000010    0.000000
   -3   -5    0   10   10    0.000594    0.000000
   -3   -5    0   11   10    0.000000    0.000000
   -3   -5    0    1   11    0.000068    0.000000
   -3   -5    0    2   11    0.000415   -0.000000
   -3   -5    0    3   11    0.000316   -0.000000
   -3   -5    0    4   11   -0.000042   -0.000000
   -3   -5    0    5   11   -0.000132    0.000000
   -3   -5    0    6   11   -0.000004   -0.000000
   -3   -5    0    7   11    0.000079   -0.000000
   -3   -5    0    8   11    0.000117    0.000000
   -3   -5    0    9   11    0.000075   -0.000000
   -3   -5    0   10   11    0.000117    0.000000
   -3   -5    0   11   11   -0.000076   -0.000000
   -3   -4    0    1    1    0.000653   -0.000000
   -3   -4    0    2    1   -0.000000    0.000000
   -3   -4    0    3    1    0.000000    0.000000
   -3   -4    0    4    1   -0.000594   -0.000000
   -3   -4    0    5    1    0.000289   -0.000000
   -3   -4    0    6    1    0.000082   -0.000000
   -3   -4    0    7    1   -0.000180   -0.000000
   -3   -4    0    8    1    0.000048   -0.000000
   -3   -4    0    9    1   -0.000082    0.000000
   -3   -4    0   10    1   -0.000180   -0.000000
   -3   -4    0   11    1    0.000048   -0.000000
   -3   -4    0    1    2    0.000000   -0.000000
   -3   -4    0    2    2   -0.001103    0.000000
   -3   -4    0    3    2   -0.000592    0.000000
   -3   -4    0    4    2   -0.000000    0.000000
   -3   -4    0    5    2   -0.000000   -0.000000
   -3   -4    0    6    2   -0.000056    0.000000
   -3   -4    0    7    2    0.000654   -0.000000
   -3   -4    0    8    2   -0.000298    0.000000
   -3   -4    0    9    2   -0.000056    0.000000
   -3   -4    0   10    2   -0.000654    0.000000
   -3   -4    0   11    2    0.000298   -0.000000
   -3   -4    0    1    3   -0.000000    0.000000
   -3   -4    0    2    3    0.000159    0.000000
   -3   -4    0    3    3   -0.000050   -0.000000
   -3   -4    0    4    3    0.000000   -0.000000
   -3   -4    0    5    3    0.000000   -0.000000
   -3   -4    0    6    3   -0.000091    0.000000
   -3   -4    0    7    3   -0.000120    0.000000
   -3   -4    0    8    3    0.000324   -0.000000
   -3   -4    0    9    3   -0.000091    0.000000
   -3   -4    0   10    3    0.000120   -0.000000
   -3   -4    0   11    3   -0.000324    0.000000
   -3   -4    0    1    4   -0.000117   -0.000000
   -3   -4    0    2    4    0.000000    0.000000
   -3   -4    0    3    4    0.000000    0.000000
   -3   -4    0    4    4    0.000952    0.000000
   -3   -4    0    5    4   -0.000331    0.000000
   -3   -4    0    6    4   -0.000133    0.000000
   -3   -4    0    7    4    0.000301    0.000000
   -3   -4    0    8    4   -0.000033   -0.000000
   -3   -4    0    9    4    0.000133   -0.000000
   -3   -4    0   10    4    0.000301    0.000000
   -3   -4    0   11    4   -0.000033   -0.000000
   -3   -4    0    1    5   -0.001099   -0.000000
   -3   -4    0    2    5    0.000000   -0.000000
   -3   -4    0    3    5    0.000000   -0.000000
   -3   -4    0    4    5    0.001182   -0.000000
   -3   -4    0    5    5   -0.000157    0.000000
   -3   -4    0    6    5   -0.000140    0.000000
   -3   -4    0    7    5   -0.000138    0.000000
   -3   -4    0    8    5   -0.000214    0.000000
   -3   -4    0    9    5    0.000140   -0.000000
   -3   -4    0   10    5   -0.000138   -0.000000
   -3   -4    0   11    5   -0.000214    0.000000
   -3   -4    0    1    6   -0.001818    0.000000
   -3   -4    0    2    6   -0.000324    0.000000
   -3   -4    0    3    6    0.000076    0.000000
   -3   -4    0    4    6    0.001443    0.000000
   -3   -4    0    5    6    0.000707    0.000000
   -3   -4    0    6    6    0.000065    0.000000
   -3   -4    0    7    6   -0.000469    0.000000
   -3   -4    0    8    6   -0.000342    0.000000
   -3   -4    0    9    6   -0.000248    0.000000
   -3   -4    0   10    6   -0.000480   -0.000000
   -3   -4    0   11    6   -0.000235    0.000000
   -3   -4    0    1    7   -0.000433   -0.000000
   -3   -4    0    2    7    0.000692    0.000000
   -3   -4    0    3    7    0.000521   -0.000000
   -3   -4    0    4    7    0.000316    0.000000
   -3   -4    0    5    7    0.000588    0.000000
   -3   -4    0    6    7   -0.000444   -0.000000
   -3   -4    0    7    7   -0.000539   -0.000000
   -3   -4    0    8    7    0.000494   -0.000000
   -3   -4    0    9    7   -0.000409   -0.000000
   -3   -4    0   10    7    0.001069    0.000000
   -3   -4    0   11    7   -0.000478    0.000000
   -3   -4    0    1    8   -0.000370   -0.000000
   -3   -4    0    2    8   -0.001508    0.000000
   -3   -4    0    3    8   -0.001200    0.000000
   -3   -4    0    4    8    0.000285   -0.000000
   -3   -4    0    5    8   -0.000122    0.000000
   -3   -4    0    6    8   -0.000408    0.000000
   -3   -4    0    7    8    0.000418   -0.000000
   -3   -4    0    8    8   -0.000284    0.000000
   -3   -4    0    9    8   -0.000244   -0.000000
   -3   -4    0   10    8   -0.000029    0.000000
   -3   -4    0   11    8    0.000072   -0.000000
   -3   -4    0    1    9    0.001818   -0.000000
   -3   -4    0    2    9   -0.000324    0.000000
   -3   -4    0    3    9    0.000076    0.000000
   -3   -4    0    4    9   -0.001443   -0.000000
   -3   -4    0    5    9   -0.000707   -0.000000
   -3   -4    0    6    9   -0.000248   -0.000000
   -3   -4    0    7    9    0.000480   -0.000000
   -3   -4    0    8    9    0.000235   -0.000000
   -3   -4    0    9    9    0.000065    0.000000
   -3   -4    0   10    9    0.000469   -0.000000
   -3   -4    0   11    9    0.000342   -0.000000
   -3   -4    0    1   10   -0.000433   -0.000000
   -3   -4    0    2   10   -0.000692   -0.000000
   -3   -4    0    3   10   -0.000521    0.000000
   -3   -4    0    4   10    0.000316    0.000000
   -3   -4    0    5   10    0.000588    0.000000
   -3   -4    0    6   10    0.000409    0.000000
   -3   -4    0    7   10    0.001069    0.000000
   -3   -4    0    8   10   -0.000478    0.000000
   -3   -4    0    9   10    0.000444    0.000000
   -3   -4    0   10   10   -0.000539   -0.000000
   -3   -4    0   11   10    0.000494   -0.000000
   -3   -4    0    1   11   -0.000370   -0.000000
   -3   -4    0    2   11    0.001508   -0.000000
   -3   -4    0    3   11    0.001200   -0.000000
   -3   -4    0    4   11    0.000285   -0.000000
   -3   -4    0    5   11   -0.000122    0.000000
   -3   -4    0    6   11    0.000244    0.000000
   -3   -4    0    7   11   -0.000029    0.000000
   -3   -4    0    8   11    0.000072   -0.000000
   -3   -4    0    9   11    0.000408   -0.000000
   -3   -4    0   10   11    0.000418   -0.000000
   -3   -4    0   11   11   -0.000284    0.000000
   -3   -3    0    1    1   -0.004900   -0.000000
   -3   -3    0    2    1    0.000000    0.000000
   -3   -3    0    3    1    0.000000   -0.000000
   -3   -3    0    4    1    0.003828    0.000000
   -3   -3    0    5    1   -0.002183    0.000000
   -3   -3    0    6    1   -0.001178    0.000000
   -3   -3    0    7    1    0.000699    0.000000
   -3   -3    0    8    1   -0.000484   -0.000000
   -3   -3    0    9    1    0.001178   -0.000000
   -3   -3    0   10    1    0.000699    0.000000
   -3   -3    0   11    1   -0.000484   -0.000000
   -3   -3    0    1    2   -0.000000   -0.000000
   -3   -3    0    2    2    0.001558   -0.000000
   -3   -3    0    3    2    0.001728   -0.000000
   -3   -3    0    4    2    0.000000   -0.000000
   -3   -3    0    5    2   -0.000000    0.000000
   -3   -3    0    6    2   -0.000177    0.000000
   -3   -3    0    7    2   -0.001968    0.000000
   -3   -3    0    8    2    0.000167    0.000000
   -3   -3    0    9    2   -0.000177    0.000000
   -3   -3    0   10    2    0.001968   -0.000000
   -3   -3    0   11    2   -0.000167   -0.000000
   -3   -3    0    1    3    0.000000   -0.000000
   -3   -3    0    2    3   -0.001728   -0.000000
   -3   -3    0    3    3   -0.001205    0.000000
   -3   -3    0    4    3   -0.000000    0.000000
   -3   -3    0    5    3    0.000000    0.000000
   -3   -3    0    6    3    0.000038    0.000000
   -3   -3    0    7    3    0.001497   -0.000000
   -3   -3    0    8    3   -0.000143    0.000000
   -3   -3    0    9    3    0.000038    0.000000
   -3   -3    0   10    3   -0.001497    0.000000
   -3   -3    0   11    3    0.000143   -0.000000
   -3   -3    0    1    4    0.003828    0.000000
   -3   -3    0    2    4   -0.000000   -0.000000
   -3   -3    0    3    4   -0.000000   -0.000000
   -3   -3    0    4    4   -0.004883   -0.000000
   -3   -3    0    5    4    0.003875    0.000000
   -3   -3    0    6    4    0.001734   -0.000000
   -3   -3    0    7    4   -0.000707    0.000000
   -3   -3    0    8    4    0.000358   -0.000000
   -3   -3    0    9    4   -0.001734    0.000000
   -3   -3    0   10    4   -0.000707    0.000000
   -3   -3    0   11    4    0.000358   -0.000000
   -3   -3    0    1    5    0.002183    0.000000
   -3   -3    0    2    5   -0.000000   -0.000000
   -3   -3    0    3    5   -0.000000    0.000000
   -3   -3    0    4    5   -0.003875    0.000000
   -3   -3    0    5    5    0.002092    0.000000
   -3   -3    0    6    5    0.000965   -0.000000
   -3   -3    0    7    5   -0.001003    0.000000
   -3   -3    0    8    5    0.000196    0.000000
   -3   -3    0    9    5   -0.000965   -0.000000
   -3   -3    0   10    5   -0.001003    0.000000
   -3   -3    0   11    5    0.000196    0.000000
   -3   -3    0    1    6    0.004757   -0.000000
   -3   -3    0    2    6    0.002342    0.000000
   -3   -3    0    3    6    0.001120    0.000000
   -3   -3    0    4    6   -0.008844   -0.000000
   -3   -3    0    5    6    0.000817   -0.000000
   -3   -3    0    6    6    0.001659   -0.000000
   -3   -3    0    7    6    0.000374   -0.000000
   -3   -3    0    8    6    0.000664    0.000000
   -3   -3    0    9    6   -0.000944   -0.000000
   -3   -3    0   10    6    0.001349   -0.000000
   -3   -3    0   11    6    0.000483    0.000000
   -3   -3    0    1    7   -0.005004   -0.000000
   -3   -3    0    2    7   -0.009793    0.000000
   -3   -3    0    3    7   -0.008198   -0.000000
   -3   -3    0    4    7    0.000905    0.000000
   -3   -3    0    5    7   -0.004808    0.000000
   -3   -3    0    6    7   -0.000374    0.000000
   -3   -3    0    7    7    0.011702    0.000000
   -3   -3    0    8    7   -0.001114    0.000000
   -3   -3    0    9    7    0.001349   -0.000000
   -3   -3    0   10    7    0.000346   -0.000000
   -3   -3    0   11    7    0.000354   -0.000000
   -3   -3    0    1    8    0.003040    0.000000
   -3   -3    0    2    8   -0.003409    0.000000
   -3   -3    0    3    8   -0.003409   -0.000000
   -3   -3    0    4    8   -0.001955   -0.000000
   -3   -3    0    5    8    0.000107    0.000000
   -3   -3    0    6    8    0.000664    0.000000
   -3   -3    0    7    8    0.001114    0.000000
   -3   -3    0    8    8   -0.000677   -0.000000
   -3   -3    0    9    8   -0.000483    0.000000
   -3   -3    0   10    8   -0.000354   -0.000000
   -3   -3    0   11    8    0.000826    0.000000
   -3   -3    0    1    9   -0.004757    0.000000
   -3   -3    0    2    9    0.002342   -0.000000
   -3   -3    0    3    9    0.001120    0.000000
   -3   -3    0    4    9    0.008844   -0.000000
   -3   -3    0    5    9   -0.000817    0.000000
   -3   -3    0    6    9   -0.000944   -0.000000
   -3   -3    0    7    9   -0.001349    0.000000
   -3   -3    0    8    9   -0.000483   -0.000000
   -3   -3    0    9    9    0.001659    0.000000
   -3   -3    0   10    9   -0.000374    0.000000
   -3   -3    0   11    9   -0.000664   -0.000000
   -3   -3    0    1   10   -0.005004   -0.000000
   -3   -3    0    2   10    0.009793   -0.000000
   -3   -3    0    3   10    0.008198    0.000000
   -3   -3    0    4   10    0.000905    0.000000
   -3   -3    0    5   10   -0.004808    0.000000
   -3   -3    0    6   10   -0.001349    0.000000
   -3   -3    0    7   10    0.000346   -0.000000
   -3   -3    0    8   10    0.000354   -0.000000
   -3   -3    0    9   10    0.000374   -0.000000
   -3   -3    0   10   10    0.011702    0.000000
   -3   -3    0   11   10   -0.001114    0.000000
   -3   -3    0    1   11    0.003040    0.000000
   -3   -3    0    2   11    0.003409   -0.000000
   -3   -3    0    3   11    0.003409    0.000000
   -3   -3    0    4   11   -0.001955   -0.000000
   -3   -3    0    5   11    0.000107    0.000000
   -3   -3    0    6   11    0.000483   -0.000000
   -3   -3    0    7   11   -0.000354   -0.000000
   -3   -3    0    8   11    0.000826    0.000000
   -3   -3    0    9   11   -0.000664   -0.000000
   -3   -3    0   10   11    0.001114    0.000000
   -3   -3    0   11   11   -0.000677   -0.000000
   -3   -2    0    1    1   -0.000547    0.000000
   -3   -2    0    2    1    0.000000   -0.000000
   -3   -2    0    3    1    0.000000    0.000000
   -3   -2    0    4    1    0.001557   -0.000000
   -3   -2    0    5    1   -0.003931    0.000000
   -3   -2    0    6    1   -0.001818   -0.000000
   -3   -2    0    7    1    0.000433   -0.000000
   -3   -2    0    8    1   -0.000370   -0.000000
   -3   -2    0    9    1    0.001818    0.000000
   -3   -2    0   10    1    0.000433   -0.000000
   -3   -2    0   11    1   -0.000370   -0.000000
   -3   -2    0    1    2   -0.000000    0.000000
   -3   -2    0    2    2    0.000256    0.000000
   -3   -2    0    3    2   -0.002403    0.000000
   -3   -2    0    4    2    0.000000   -0.000000
   -3   -2    0    5    2   -0.000000   -0.000000
   -3   -2    0    6    2    0.000324    0.000000
[...]
    4    5    0    9    8   -0.000147    0.000000
    4    5    0   10    8    0.000000   -0.000000
    4    5    0   11    8   -0.000087    0.000000
    4    5    0    1    9   -0.000082    0.000000
    4    5    0    2    9    0.000056   -0.000000
    4    5    0    3    9   -0.000091    0.000000
    4    5    0    4    9    0.000133   -0.000000
    4    5    0    5    9   -0.000140    0.000000
    4    5    0    6    9   -0.000121    0.000000
    4    5    0    7    9    0.000000    0.000000
    4    5    0    8    9   -0.000009   -0.000000
    4    5    0    9    9    0.000224   -0.000000
    4    5    0   10    9   -0.000000    0.000000
    4    5    0   11    9   -0.000068   -0.000000
    4    5    0    1   10    0.000180   -0.000000
    4    5    0    2   10   -0.000654   -0.000000
    4    5    0    3   10   -0.000120    0.000000
    4    5    0    4   10   -0.000301    0.000000
    4    5    0    5   10   -0.000138    0.000000
    4    5    0    6   10    0.000000    0.000000
    4    5    0    7   10    0.000734   -0.000000
    4    5    0    8   10    0.000000   -0.000000
    4    5    0    9   10   -0.000000   -0.000000
    4    5    0   10   10   -0.000198    0.000000
    4    5    0   11   10   -0.000000    0.000000
    4    5    0    1   11    0.000048    0.000000
    4    5    0    2   11   -0.000298   -0.000000
    4    5    0    3   11   -0.000324    0.000000
    4    5    0    4   11   -0.000033   -0.000000
    4    5    0    5   11    0.000214    0.000000
    4    5    0    6   11    0.000147   -0.000000
    4    5    0    7   11    0.000000   -0.000000
    4    5    0    8   11   -0.000087    0.000000
    4    5    0    9   11   -0.000152   -0.000000
    4    5    0   10   11   -0.000000    0.000000
    4    5    0   11   11    0.000080   -0.000000
    5    2    0    1    1   -0.000233    0.000000
    5    2    0    2    1    0.000000   -0.000000
    5    2    0    3    1    0.000000   -0.000000
    5    2    0    4    1    0.000040   -0.000000
    5    2    0    5    1   -0.000132    0.000000
    5    2    0    6    1   -0.000255   -0.000000
    5    2    0    7    1   -0.000366   -0.000000
    5    2    0    8    1    0.000089   -0.000000
    5    2    0    9    1    0.000255    0.000000
    5    2    0   10    1   -0.000366   -0.000000
    5    2    0   11    1    0.000089   -0.000000
    5    2    0    1    2    0.000000    0.000000
    5    2    0    2    2    0.000059    0.000000
    5    2    0    3    2   -0.000097    0.000000
    5    2    0    4    2    0.000000   -0.000000
    5    2    0    5    2    0.000000   -0.000000
    5    2    0    6    2   -0.000020    0.000000
    5    2    0    7    2   -0.000017    0.000000
    5    2    0    8    2    0.000321    0.000000
    5    2    0    9    2   -0.000020    0.000000
    5    2    0   10    2    0.000017   -0.000000
    5    2    0   11    2   -0.000321   -0.000000
    5    2    0    1    3    0.000000   -0.000000
    5    2    0    2    3   -0.000180    0.000000
    5    2    0    3    3    0.000223   -0.000000
    5    2    0    4    3    0.000000    0.000000
    5    2    0    5    3    0.000000   -0.000000
    5    2    0    6    3   -0.000140    0.000000
    5    2    0    7    3   -0.000131   -0.000000
    5    2    0    8    3   -0.000314    0.000000
    5    2    0    9    3   -0.000140    0.000000
    5    2    0   10    3    0.000131    0.000000
    5    2    0   11    3    0.000314   -0.000000
    5    2    0    1    4    0.000473   -0.000000
    5    2    0    2    4    0.000000   -0.000000
    5    2    0    3    4   -0.000000    0.000000
    5    2    0    4    4   -0.000006    0.000000
    5    2    0    5    4    0.000424   -0.000000
    5    2    0    6    4    0.000291    0.000000
    5    2    0    7    4    0.000282    0.000000
    5    2    0    8    4   -0.000137   -0.000000
    5    2    0    9    4   -0.000291   -0.000000
    5    2    0   10    4    0.000282    0.000000
    5    2    0   11    4   -0.000137   -0.000000
    5    2    0    1    5   -0.000383   -0.000000
    5    2    0    2    5   -0.000000   -0.000000
    5    2    0    3    5    0.000000   -0.000000
    5    2    0    4    5   -0.000229   -0.000000
    5    2    0    5    5   -0.000453   -0.000000
    5    2    0    6    5   -0.000473    0.000000
    5    2    0    7    5   -0.000469    0.000000
    5    2    0    8    5    0.000214    0.000000
    5    2    0    9    5    0.000473   -0.000000
    5    2    0   10    5   -0.000469    0.000000
    5    2    0   11    5    0.000214    0.000000
    5    2    0    1    6   -0.000313    0.000000
    5    2    0    2    6    0.000063    0.000000
    5    2    0    3    6    0.000037    0.000000
    5    2    0    4    6   -0.000250    0.000000
    5    2    0    5    6   -0.000402    0.000000
    5    2    0    6    6   -0.000176    0.000000
    5    2    0    7    6   -0.000174    0.000000
    5    2    0    8    6    0.000131   -0.000000
    5    2    0    9    6    0.000220   -0.000000
    5    2    0   10    6   -0.000196    0.000000
    5    2    0   11    6    0.000157   -0.000000
    5    2    0    1    7    0.000069   -0.000000
    5    2    0    2    7   -0.000001   -0.000000
    5    2    0    3    7    0.000194   -0.000000
    5    2    0    4    7    0.000028    0.000000
    5    2    0    5    7    0.000038    0.000000
    5    2    0    6    7    0.000076   -0.000000
    5    2    0    7    7    0.000140   -0.000000
    5    2    0    8    7   -0.000371   -0.000000
    5    2    0    9    7   -0.000050    0.000000
    5    2    0   10    7    0.000147    0.000000
    5    2    0   11    7    0.000163    0.000000
    5    2    0    1    8    0.000031   -0.000000
    5    2    0    2    8    0.000197    0.000000
    5    2    0    3    8   -0.000222   -0.000000
    5    2    0    4    8    0.000002   -0.000000
    5    2    0    5    8    0.000017    0.000000
    5    2    0    6    8    0.000022    0.000000
    5    2    0    7    8   -0.000264   -0.000000
    5    2    0    8    8    0.000384    0.000000
    5    2    0    9    8    0.000088   -0.000000
    5    2    0   10    8    0.000017    0.000000
    5    2    0   11    8   -0.000299   -0.000000
    5    2    0    1    9    0.000313   -0.000000
    5    2    0    2    9    0.000063    0.000000
    5    2    0    3    9    0.000037    0.000000
    5    2    0    4    9    0.000250   -0.000000
    5    2    0    5    9    0.000402   -0.000000
    5    2    0    6    9    0.000220    0.000000
    5    2    0    7    9    0.000196   -0.000000
    5    2    0    8    9   -0.000157    0.000000
    5    2    0    9    9   -0.000176    0.000000
    5    2    0   10    9    0.000174   -0.000000
    5    2    0   11    9   -0.000131    0.000000
    5    2    0    1   10    0.000069    0.000000
    5    2    0    2   10    0.000001    0.000000
    5    2    0    3   10   -0.000194    0.000000
    5    2    0    4   10    0.000028    0.000000
    5    2    0    5   10    0.000038    0.000000
    5    2    0    6   10    0.000050   -0.000000
    5    2    0    7   10    0.000147    0.000000
    5    2    0    8   10    0.000163    0.000000
    5    2    0    9   10   -0.000076    0.000000
    5    2    0   10   10    0.000140   -0.000000
    5    2    0   11   10   -0.000371   -0.000000
    5    2    0    1   11    0.000031   -0.000000
    5    2    0    2   11   -0.000197   -0.000000
    5    2    0    3   11    0.000222   -0.000000
    5    2    0    4   11    0.000002   -0.000000
    5    2    0    5   11    0.000017    0.000000
    5    2    0    6   11   -0.000088    0.000000
    5    2    0    7   11    0.000017    0.000000
    5    2    0    8   11   -0.000299   -0.000000
    5    2    0    9   11   -0.000022    0.000000
    5    2    0   10   11   -0.000264   -0.000000
    5    2    0   11   11    0.000384    0.000000
    5    3    0    1    1   -0.000217   -0.000000
    5    3    0    2    1   -0.000000   -0.000000
    5    3    0    3    1   -0.000000    0.000000
    5    3    0    4    1    0.000068    0.000000
    5    3    0    5    1   -0.000093    0.000000
    5    3    0    6    1   -0.000257   -0.000000
    5    3    0    7    1   -0.000270    0.000000
    5    3    0    8    1    0.000267    0.000000
    5    3    0    9    1    0.000257    0.000000
    5    3    0   10    1   -0.000270   -0.000000
    5    3    0   11    1    0.000267    0.000000
    5    3    0    1    2   -0.000000    0.000000
    5    3    0    2    2    0.000303   -0.000000
    5    3    0    3    2   -0.000043   -0.000000
    5    3    0    4    2   -0.000000    0.000000
    5    3    0    5    2    0.000000    0.000000
    5    3    0    6    2    0.000126   -0.000000
    5    3    0    7    2   -0.000328    0.000000
    5    3    0    8    2   -0.000299   -0.000000
    5    3    0    9    2    0.000126   -0.000000
    5    3    0   10    2    0.000328   -0.000000
    5    3    0   11    2    0.000299    0.000000
    5    3    0    1    3   -0.000000    0.000000
    5    3    0    2    3    0.000040   -0.000000
    5    3    0    3    3   -0.000021    0.000000
    5    3    0    4    3    0.000000   -0.000000
    5    3    0    5    3    0.000000    0.000000
    5    3    0    6    3    0.000082   -0.000000
    5    3    0    7    3    0.000149    0.000000
    5    3    0    8    3   -0.000007    0.000000
    5    3    0    9    3    0.000082   -0.000000
    5    3    0   10    3   -0.000149   -0.000000
    5    3    0   11    3    0.000007    0.000000
    5    3    0    1    4    0.000106    0.000000
    5    3    0    2    4    0.000000    0.000000
    5    3    0    3    4   -0.000000   -0.000000
    5    3    0    4    4   -0.000240   -0.000000
    5    3    0    5    4   -0.000102    0.000000
    5    3    0    6    4    0.000251   -0.000000
    5    3    0    7    4    0.000224   -0.000000
    5    3    0    8    4   -0.000147    0.000000
    5    3    0    9    4   -0.000251    0.000000
    5    3    0   10    4    0.000224   -0.000000
    5    3    0   11    4   -0.000147    0.000000
    5    3    0    1    5   -0.000645   -0.000000
    5    3    0    2    5   -0.000000    0.000000
    5    3    0    3    5    0.000000    0.000000
    5    3    0    4    5    0.000530    0.000000
    5    3    0    5    5   -0.000233    0.000000
    5    3    0    6    5   -0.000506   -0.000000
    5    3    0    7    5   -0.000462   -0.000000
    5    3    0    8    5    0.000300   -0.000000
    5    3    0    9    5    0.000506    0.000000
    5    3    0   10    5   -0.000462   -0.000000
    5    3    0   11    5    0.000300   -0.000000
    5    3    0    1    6   -0.000341    0.000000
    5    3    0    2    6    0.000000   -0.000000
    5    3    0    3    6   -0.000078   -0.000000
    5    3    0    4    6    0.000446   -0.000000
    5    3    0    5    6    0.000000   -0.000000
    5    3    0    6    6   -0.000172    0.000000
    5    3    0    7    6   -0.000212    0.000000
    5    3    0    8    6    0.000081   -0.000000
    5    3    0    9    6    0.000223   -0.000000
    5    3    0   10    6   -0.000238    0.000000
    5    3    0   11    6    0.000083   -0.000000
    5    3    0    1    7   -0.000000    0.000000
    5    3    0    2    7   -0.000333   -0.000000
    5    3    0    3    7    0.000000    0.000000
    5    3    0    4    7    0.000000   -0.000000
    5    3    0    5    7   -0.000008   -0.000000
    5    3    0    6    7    0.000010   -0.000000
    5    3    0    7    7    0.000594    0.000000
    5    3    0    8    7   -0.000000    0.000000
    5    3    0    9    7   -0.000113    0.000000
    5    3    0   10    7   -0.000266   -0.000000
    5    3    0   11    7   -0.000216   -0.000000
    5    3    0    1    8   -0.000091    0.000000
    5    3    0    2    8   -0.000000   -0.000000
    5    3    0    3    8    0.000113   -0.000000
    5    3    0    4    8    0.000058    0.000000
    5    3    0    5    8   -0.000000   -0.000000
    5    3    0    6    8   -0.000075    0.000000
    5    3    0    7    8   -0.000117    0.000000
    5    3    0    8    8   -0.000076   -0.000000
    5    3    0    9    8    0.000004   -0.000000
    5    3    0   10    8   -0.000079   -0.000000
    5    3    0   11    8    0.000117    0.000000
    5    3    0    1    9    0.000341   -0.000000
    5    3    0    2    9    0.000000   -0.000000
    5    3    0    3    9   -0.000078   -0.000000
    5    3    0    4    9   -0.000446    0.000000
    5    3    0    5    9   -0.000000   -0.000000
    5    3    0    6    9    0.000223    0.000000
    5    3    0    7    9    0.000238   -0.000000
    5    3    0    8    9   -0.000083    0.000000
    5    3    0    9    9   -0.000172    0.000000
    5    3    0   10    9    0.000212   -0.000000
    5    3    0   11    9   -0.000081   -0.000000
    5    3    0    1   10   -0.000000    0.000000
    5    3    0    2   10    0.000333    0.000000
    5    3    0    3   10   -0.000000   -0.000000
    5    3    0    4   10    0.000000   -0.000000
    5    3    0    5   10   -0.000008   -0.000000
    5    3    0    6   10    0.000113   -0.000000
    5    3    0    7   10   -0.000266   -0.000000
    5    3    0    8   10   -0.000216   -0.000000
    5    3    0    9   10   -0.000010    0.000000
    5    3    0   10   10    0.000594    0.000000
    5    3    0   11   10   -0.000000    0.000000
    5    3    0    1   11   -0.000091    0.000000
    5    3    0    2   11    0.000000    0.000000
    5    3    0    3   11   -0.000113    0.000000
    5    3    0    4   11    0.000058    0.000000
    5    3    0    5   11   -0.000000   -0.000000
    5    3    0    6   11   -0.000004    0.000000
    5    3    0    7   11   -0.000079   -0.000000
    5    3    0    8   11    0.000117    0.000000
    5    3    0    9   11    0.000075   -0.000000
    5    3    0   10   11   -0.000117    0.000000
    5    3    0   11   11   -0.000076   -0.000000
    5    4    0    1    1    0.000005    0.000000
    5    4    0    2    1   -0.000000    0.000000
    5    4    0    3    1    0.000000    0.000000
    5    4    0    4    1    0.000221   -0.000000
    5    4    0    5    1    0.000000   -0.000000
    5    4    0    6    1    0.000082    0.000000
    5    4    0    7    1    0.000180    0.000000
    5    4    0    8    1    0.000048   -0.000000
    5    4    0    9    1   -0.000082   -0.000000
    5    4    0   10    1    0.000180    0.000000
    5    4    0   11    1    0.000048   -0.000000
    5    4    0    1    2    0.000000   -0.000000
    5    4    0    2    2   -0.000296    0.000000
    5    4    0    3    2    0.000000    0.000000
    5    4    0    4    2   -0.000000    0.000000
    5    4    0    5    2   -0.000000    0.000000
    5    4    0    6    2    0.000056    0.000000
    5    4    0    7    2    0.000654   -0.000000
    5    4    0    8    2    0.000298   -0.000000
    5    4    0    9    2    0.000056    0.000000
    5    4    0   10    2   -0.000654    0.000000
    5    4    0   11    2   -0.000298    0.000000
    5    4    0    1    3    0.000000    0.000000
    5    4    0    2    3    0.000000    0.000000
    5    4    0    3    3    0.000147   -0.000000
    5    4    0    4    3   -0.000000    0.000000
    5    4    0    5    3   -0.000000   -0.000000
    5    4    0    6    3   -0.000091   -0.000000
    5    4    0    7    3    0.000120    0.000000
    5    4    0    8    3    0.000324    0.000000
    5    4    0    9    3   -0.000091   -0.000000
    5    4    0   10    3   -0.000120   -0.000000
    5    4    0   11    3   -0.000324   -0.000000
    5    4    0    1    4   -0.000102   -0.000000
    5    4    0    2    4    0.000000    0.000000
    5    4    0    3    4    0.000000   -0.000000
    5    4    0    4    4   -0.000359    0.000000
    5    4    0    5    4   -0.000000   -0.000000
    5    4    0    6    4   -0.000133    0.000000
    5    4    0    7    4   -0.000301   -0.000000
    5    4    0    8    4   -0.000033    0.000000
    5    4    0    9    4    0.000133    0.000000
    5    4    0   10    4   -0.000301   -0.000000
    5    4    0   11    4   -0.000033    0.000000
    5    4    0    1    5    0.000000   -0.000000
    5    4    0    2    5   -0.000000   -0.000000
    5    4    0    3    5   -0.000000   -0.000000
    5    4    0    4    5   -0.000000   -0.000000
    5    4    0    5    5    0.000259   -0.000000
    5    4    0    6    5    0.000140    0.000000
    5    4    0    7    5   -0.000138   -0.000000
    5    4    0    8    5    0.000214   -0.000000
    5    4    0    9    5   -0.000140   -0.000000
    5    4    0   10    5   -0.000138   -0.000000
    5    4    0   11    5    0.000214   -0.000000
    5    4    0    1    6    0.000381   -0.000000
    5    4    0    2    6    0.000068   -0.000000
    5    4    0    3    6    0.000035   -0.000000
    5    4    0    4    6   -0.000484    0.000000
    5    4    0    5    6    0.000264    0.000000
    5    4    0    6    6    0.000224    0.000000
    5    4    0    7    6    0.000000   -0.000000
    5    4    0    8    6    0.000152   -0.000000
    5    4    0    9    6   -0.000121   -0.000000
    5    4    0   10    6    0.000000   -0.000000
    5    4    0   11    6    0.000147    0.000000
    5    4    0    1    7    0.000126   -0.000000
    5    4    0    2    7    0.000614   -0.000000
    5    4    0    3    7    0.000293    0.000000
    5    4    0    4    7   -0.000244   -0.000000
    5    4    0    5    7    0.000056   -0.000000
    5    4    0    6    7    0.000000    0.000000
    5    4    0    7    7   -0.000198   -0.000000
    5    4    0    8    7   -0.000000   -0.000000
    5    4    0    9    7    0.000000   -0.000000
    5    4    0   10    7    0.000734    0.000000
    5    4    0   11    7    0.000000    0.000000
    5    4    0    1    8    0.000012    0.000000
    5    4    0    2    8    0.000214   -0.000000
    5    4    0    3    8    0.000112    0.000000
    5    4    0    4    8   -0.000051    0.000000
    5    4    0    5    8    0.000006   -0.000000
    5    4    0    6    8    0.000068   -0.000000
    5    4    0    7    8   -0.000000   -0.000000
    5    4    0    8    8    0.000080    0.000000
    5    4    0    9    8   -0.000009    0.000000
    5    4    0   10    8    0.000000    0.000000
    5    4    0   11    8   -0.000087   -0.000000
    5    4    0    1    9   -0.000381    0.000000
    5    4    0    2    9    0.000068   -0.000000
    5    4    0    3    9    0.000035   -0.000000
    5    4    0    4    9    0.000484   -0.000000
    5    4    0    5    9   -0.000264    0.000000
    5    4    0    6    9   -0.000121    0.000000
    5    4    0    7    9   -0.000000    0.000000
    5    4    0    8    9   -0.000147   -0.000000
    5    4    0    9    9    0.000224    0.000000
    5    4    0   10    9   -0.000000    0.000000
    5    4    0   11    9   -0.000152    0.000000
    5    4    0    1   10    0.000126   -0.000000
    5    4    0    2   10   -0.000614    0.000000
    5    4    0    3   10   -0.000293   -0.000000
    5    4    0    4   10   -0.000244   -0.000000
    5    4    0    5   10    0.000056   -0.000000
    5    4    0    6   10   -0.000000    0.000000
    5    4    0    7   10    0.000734    0.000000
    5    4    0    8   10    0.000000    0.000000
    5    4    0    9   10   -0.000000   -0.000000
    5    4    0   10   10   -0.000198   -0.000000
    5    4    0   11   10   -0.000000   -0.000000
    5    4    0    1   11    0.000012    0.000000
    5    4    0    2   11   -0.000214    0.000000
    5    4    0    3   11   -0.000112   -0.000000
    5    4    0    4   11   -0.000051    0.000000
    5    4    0    5   11    0.000006   -0.000000
    5    4    0    6   11    0.000009   -0.000000
    5    4    0    7   11    0.000000    0.000000
    5    4    0    8   11   -0.000087   -0.000000
    5    4    0    9   11   -0.000068    0.000000
    5    4    0   10   11   -0.000000   -0.000000
    5    4    0   11   11    0.000080    0.000000
