 vasp.5.4.4.18Apr17-6-g9f103f2a35 (build Nov 28 2017 01:56:59) complex          
  
 executed on           IFC91_ompi date 2019.03.09  05:24:11
 running on   27 total cores
 distrk:  each k-point on    3 cores,    9 groups
 distr:  one band on NCORES_PER_BAND=   1 cores,    3 groups


--------------------------------------------------------------------------------------------------------


 INCAR:
 POTCAR:    PAW_PBE W 08Apr2002                   
 POTCAR:    PAW_PBE S 06Sep2000                   

 ----------------------------------------------------------------------------- 
|                                                                             |
|           W    W    AA    RRRRR   N    N  II  N    N   GGGG   !!!           |
|           W    W   A  A   R    R  NN   N  II  NN   N  G    G  !!!           |
|           W    W  A    A  R    R  N N  N  II  N N  N  G       !!!           |
|           W WW W  AAAAAA  RRRRR   N  N N  II  N  N N  G  GGG   !            |
|           WW  WW  A    A  R   R   N   NN  II  N   NN  G    G                |
|           W    W  A    A  R    R  N    N  II  N    N   GGGG   !!!           |
|                                                                             |
|      For optimal performance we recommend to set                            |
|        NCORE= 4 - approx SQRT( number of cores)                             |
|      NCORE specifies how many cores store one orbital (NPAR=cpu/NCORE).     |
|      This setting can  greatly improve the performance of VASP for DFT.     |
|      The default,   NCORE=1            might be grossly inefficient         |
|      on modern multi-core architectures or massively parallel machines.     |
|      Do your own testing !!!!                                               |
|      Unfortunately you need to use the default for GW and RPA calculations. |
|      (for HF NCORE is supported but not extensively tested yet)             |
|                                                                             |
 ----------------------------------------------------------------------------- 


 ----------------------------------------------------------------------------- 
|                                                                             |
|           W    W    AA    RRRRR   N    N  II  N    N   GGGG   !!!           |
|           W    W   A  A   R    R  NN   N  II  NN   N  G    G  !!!           |
|           W    W  A    A  R    R  N N  N  II  N N  N  G       !!!           |
|           W WW W  AAAAAA  RRRRR   N  N N  II  N  N N  G  GGG   !            |
|           WW  WW  A    A  R   R   N   NN  II  N   NN  G    G                |
|           W    W  A    A  R    R  N    N  II  N    N   GGGG   !!!           |
|                                                                             |
|      You have enabled k-point parallelism (KPAR>1).                         |
|      This developmental code was originally  written by Paul Kent at ORNL,  |
|      and carefully double checked in Vienna.                                |
|      GW as well as linear response parallelism added by Martijn Marsman     |
|      and Georg Kresse.                                                      |
|      Carefully verify results versus KPAR=1.                                |
|      Report problems to Paul Kent and Vienna.                               |
|                                                                             |
 ----------------------------------------------------------------------------- 

 POTCAR:    PAW_PBE W 08Apr2002                   
   VRHFIN =W : 6s5d                                                             
   LEXCH  = PE                                                                  
   EATOM  =   204.6103 eV,   15.0384 Ry                                         
                                                                                
   TITEL  = PAW_PBE W 08Apr2002                                                 
   LULTRA =        F    use ultrasoft PP ?                                      
   IUNSCR =        1    unscreen: 0-lin 1-nonlin 2-no                           
   RPACOR =    2.330    partial core radius                                     
   POMASS =  183.850; ZVAL   =    6.000    mass and valenz                      
   RCORE  =    2.750    outmost cutoff radius                                   
   RWIGS  =    2.750; RWIGS  =    1.455    wigner-seitz radius (au A)           
   ENMAX  =  223.057; ENMIN  =  167.293 eV                                      
   RCLOC  =    2.147    cutoff for local pot                                    
   LCOR   =        T    correct aug charges                                     
   LPAW   =        T    paw PP                                                  
   EAUG   =  373.438                                                            
   DEXC   =    0.000                                                            
   RMAX   =    2.801    core radius for proj-oper                               
   RAUG   =    1.300    factor for augmentation sphere                          
   RDEP   =    2.886    radius for radial grids                                 
   RDEPT  =    2.230    core radius for aug-charge                              
                                                                                
   Atomic configuration                                                         
   16 entries                                                                   
     n  l   j            E        occ.                                          
     1  0  0.50    -69465.5836   2.0000                                         
     2  0  0.50    -11986.2642   2.0000                                         
     2  1  1.50    -10479.8616   6.0000                                         
     3  0  0.50     -2759.0758   2.0000                                         
     3  1  1.50     -2313.1857   6.0000                                         
     3  2  2.50     -1801.1185  10.0000                                         
     4  0  0.50      -567.6791   2.0000                                         
     4  1  1.50      -421.4694   6.0000                                         
     4  2  2.50      -236.3473  10.0000                                         
     4  3  3.50       -31.2666  14.0000                                         
     5  0  0.50       -77.1085   2.0000                                         
     5  1  1.50       -41.3856   6.0000                                         
     5  2  2.50        -3.3185   5.0000                                         
     6  0  0.50        -5.1438   1.0000                                         
     6  1  0.50        -3.8096   0.0000                                         
     5  3  2.50        -1.3606   0.0000                                         
   Description                                                                  
     l       E           TYP  RCUT    TYP  RCUT                                 
     2     -3.3185288     23  2.500                                             
     2     -1.5965414     23  2.500                                             
     0     -5.1438054     23  2.500                                             
     0      4.9117504     23  2.500                                             
     1      2.7211652     23  2.750                                             
     1     27.2116520     23  2.750                                             
  local pseudopotential read in
  partial core-charges read in
  partial kinetic energy density read in
  atomic valenz-charges read in
  non local Contribution for L=           2  read in
    real space projection operators read in
  non local Contribution for L=           2  read in
    real space projection operators read in
  non local Contribution for L=           0  read in
    real space projection operators read in
  non local Contribution for L=           0  read in
    real space projection operators read in
  non local Contribution for L=           1  read in
    real space projection operators read in
  non local Contribution for L=           1  read in
    real space projection operators read in
    PAW grid and wavefunctions read in
 
   number of l-projection  operators is LMAX  =           6
   number of lm-projection operators is LMMAX =          18
 
 POTCAR:    PAW_PBE S 06Sep2000                   
   VRHFIN =S : s2p4                                                             
   LEXCH  = PE                                                                  
   EATOM  =   276.8230 eV,   20.3459 Ry                                         
                                                                                
   TITEL  = PAW_PBE S 06Sep2000                                                 
   LULTRA =        F    use ultrasoft PP ?                                      
   IUNSCR =        1    unscreen: 0-lin 1-nonlin 2-no                           
   RPACOR =    1.500    partial core radius                                     
   POMASS =   32.066; ZVAL   =    6.000    mass and valenz                      
   RCORE  =    1.900    outmost cutoff radius                                   
   RWIGS  =    2.200; RWIGS  =    1.164    wigner-seitz radius (au A)           
   ENMAX  =  258.689; ENMIN  =  194.016 eV                                      
   ICORE  =        2    local potential                                         
   LCOR   =        T    correct aug charges                                     
   LPAW   =        T    paw PP                                                  
   EAUG   =  335.092                                                            
   DEXC   =    0.000                                                            
   RMAX   =    1.942    core radius for proj-oper                               
   RAUG   =    1.300    factor for augmentation sphere                          
   RDEP   =    1.954    radius for radial grids                                 
   RDEPT  =    1.744    core radius for aug-charge                              
                                                                                
   Atomic configuration                                                         
    6 entries                                                                   
     n  l   j            E        occ.                                          
     1  0  0.50     -2405.8406   2.0000                                         
     2  0  0.50      -211.7007   2.0000                                         
     2  1  1.50      -156.4958   6.0000                                         
     3  0  0.50       -17.2562   2.0000                                         
     3  1  0.50        -7.0085   4.0000                                         
     3  2  1.50        -6.8029   0.0000                                         
   Description                                                                  
     l       E           TYP  RCUT    TYP  RCUT                                 
     0    -17.2561641     23  1.900                                             
     0    -15.8743224     23  1.900                                             
     1     -7.0085400     23  1.900                                             
     1     -2.7779785     23  1.900                                             
     2     -6.8029130     23  1.900                                             
  local pseudopotential read in
  partial core-charges read in
  partial kinetic energy density read in
  atomic valenz-charges read in
  non local Contribution for L=           0  read in
    real space projection operators read in
  non local Contribution for L=           0  read in
    real space projection operators read in
  non local Contribution for L=           1  read in
    real space projection operators read in
  non local Contribution for L=           1  read in
    real space projection operators read in
    PAW grid and wavefunctions read in
 
   number of l-projection  operators is LMAX  =           4
   number of lm-projection operators is LMMAX =           8
 
  PAW_PBE W 08Apr2002                   :
 energy of atom  1       EATOM= -204.6103
 kinetic energy error for atom=    0.0024 (will be added to EATOM!!)
  PAW_PBE S 06Sep2000                   :
 energy of atom  2       EATOM= -276.8230
 kinetic energy error for atom=    0.0046 (will be added to EATOM!!)
 
 
 POSCAR: w2 monolayer                            
  positions in direct lattice
  velocities in cartesian coordinates
 exchange correlation table for  LEXCH =        8
   RHO(1)=    0.500       N(1)  =     2000
   RHO(2)=  100.500       N(2)  =     4000
 


--------------------------------------------------------------------------------------------------------


 ion  position               nearest neighbor table
   1  0.000  0.000  0.033-   2 2.42   3 2.42   2 2.42   3 2.42   2 2.42   3 2.42
   2  0.667  0.333  1.000-   1 2.42   1 2.42   1 2.42
   3  0.667  0.333  0.065-   1 2.42   1 2.42   1 2.42
 
  LATTYP: Found a hexagonal cell.
 ALAT       =     3.1900000000
 C/A-ratio  =    15.0000000000
  
  Lattice vectors:
  
 A1 = (   1.5950000000,  -2.7626210381,   0.0000000000)
 A2 = (   1.5950000000,   2.7626210381,   0.0000000000)
 A3 = (   0.0000000000,   0.0000000000,  47.8500000000)


Analysis of symmetry for initial positions (statically):
=====================================================================
 Subroutine PRICEL returns:
 Original cell was already a primitive cell.
 

 Routine SETGRP: Setting up the symmetry group for a 
 hexagonal supercell.


 Subroutine GETGRP returns: Found  4 space group operations
 (whereof  2 operations were pure point group operations)
 out of a pool of 24 trial point group operations.


The static configuration has the point symmetry C_1h.
 The point group associated with its full space group is C_2v.


Analysis of symmetry for dynamics (positions and initial velocities):
=====================================================================
 Subroutine PRICEL returns:
 Original cell was already a primitive cell.
 

 Routine SETGRP: Setting up the symmetry group for a 
 hexagonal supercell.


 Subroutine GETGRP returns: Found  4 space group operations
 (whereof  2 operations were pure point group operations)
 out of a pool of 24 trial point group operations.


The dynamic configuration has the point symmetry C_1h.
 The point group associated with its full space group is C_2v.


Analysis of constrained symmetry for selective dynamics:
=====================================================================
 Subroutine PRICEL returns:
 Original cell was already a primitive cell.
 

 Routine SETGRP: Setting up the symmetry group for a 
 hexagonal supercell.


 Subroutine GETGRP returns: Found  4 space group operations
 (whereof  2 operations were pure point group operations)
 out of a pool of 24 trial point group operations.


The constrained configuration has the point symmetry C_1h.
 The point group associated with its full space group is C_2v.


 Subroutine INISYM returns: Found  4 space group operations
 (whereof  2 operations are pure point group operations),
 and found     1 'primitive' translations

 
 
 KPOINTS: mos2 mono                               

Automatic generation of k-mesh.
Space group operators:
 irot       det(A)        alpha          n_x          n_y          n_z        tau_x        tau_y        tau_z
    1     1.000000     0.000001     1.000000     0.000000     0.000000     0.000000     0.000000     0.000000
    2    -1.000000   180.000000    -0.500000    -0.866025     0.000000     0.000000     0.000000     0.000000
    3    -1.000000   180.000000     0.000000     0.000000     1.000000     0.000000     0.000000     0.065400
    4     1.000000   180.000000     0.866025    -0.500000     0.000000     0.000000     0.000000     0.065400
 
 Subroutine IBZKPT returns following result:
 ===========================================
 
 Found     25 irreducible k-points:
 
 Following reciprocal coordinates:
            Coordinates               Weight
  0.000000  0.000000  0.000000      1.000000
  0.111111 -0.000000  0.000000      2.000000
  0.222222  0.000000  0.000000      2.000000
  0.333333  0.000000  0.000000      2.000000
  0.444444  0.000000  0.000000      2.000000
 -0.000000  0.111111  0.000000      4.000000
  0.111111  0.111111  0.000000      4.000000
  0.222222  0.111111  0.000000      4.000000
  0.333333  0.111111  0.000000      4.000000
  0.444444  0.111111  0.000000      2.000000
  0.000000  0.222222  0.000000      4.000000
  0.111111  0.222222  0.000000      4.000000
  0.222222  0.222222  0.000000      4.000000
  0.333333  0.222222  0.000000      4.000000
 -0.111111  0.222222  0.000000      2.000000
  0.000000  0.333333  0.000000      4.000000
  0.111111  0.333333  0.000000      4.000000
  0.222222  0.333333  0.000000      4.000000
  0.333333  0.333333  0.000000      2.000000
 -0.222222  0.333333  0.000000      4.000000
  0.000000  0.444444  0.000000      4.000000
  0.111111  0.444444  0.000000      4.000000
  0.222222  0.444444  0.000000      4.000000
 -0.333333  0.444444  0.000000      4.000000
 -0.222222  0.444444  0.000000      2.000000
 
 Following cartesian coordinates:
            Coordinates               Weight
  0.000000  0.000000  0.000000      1.000000
  0.111111 -0.064150  0.000000      2.000000
  0.222222 -0.128300  0.000000      2.000000
  0.333333 -0.192450  0.000000      2.000000
  0.444444 -0.256600  0.000000      2.000000
  0.111111  0.064150  0.000000      4.000000
  0.222222  0.000000  0.000000      4.000000
  0.333333 -0.064150  0.000000      4.000000
  0.444444 -0.128300  0.000000      4.000000
  0.555556 -0.192450  0.000000      2.000000
  0.222222  0.128300  0.000000      4.000000
  0.333333  0.064150  0.000000      4.000000
  0.444444  0.000000  0.000000      4.000000
  0.555556 -0.064150  0.000000      4.000000
  0.111111  0.192450  0.000000      2.000000
  0.333333  0.192450  0.000000      4.000000
  0.444444  0.128300  0.000000      4.000000
  0.555556  0.064150  0.000000      4.000000
  0.666667  0.000000  0.000000      2.000000
  0.111111  0.320750  0.000000      4.000000
  0.444444  0.256600  0.000000      4.000000
  0.555556  0.192450  0.000000      4.000000
  0.666667  0.128300  0.000000      4.000000
  0.111111  0.449050  0.000000      4.000000
  0.222222  0.384900  0.000000      2.000000
 
 
 Subroutine IBZKPT_HF returns following result:
 ==============================================
 
 Found     81 k-points in 1st BZ
 the following     81 k-points will be used (e.g. in the exchange kernel)
 Following reciprocal coordinates:   # in IRBZ
  0.000000  0.000000  0.000000    0.01234568   1 t-inv F
  0.111111 -0.000000  0.000000    0.01234568   2 t-inv F
  0.222222  0.000000  0.000000    0.01234568   3 t-inv F
  0.333333  0.000000  0.000000    0.01234568   4 t-inv F
  0.444444  0.000000  0.000000    0.01234568   5 t-inv F
 -0.000000  0.111111  0.000000    0.01234568   6 t-inv F
  0.111111  0.111111  0.000000    0.01234568   7 t-inv F
  0.222222  0.111111  0.000000    0.01234568   8 t-inv F
  0.333333  0.111111  0.000000    0.01234568   9 t-inv F
  0.444444  0.111111  0.000000    0.01234568  10 t-inv F
  0.000000  0.222222  0.000000    0.01234568  11 t-inv F
  0.111111  0.222222  0.000000    0.01234568  12 t-inv F
  0.222222  0.222222  0.000000    0.01234568  13 t-inv F
  0.333333  0.222222  0.000000    0.01234568  14 t-inv F
 -0.111111  0.222222  0.000000    0.01234568  15 t-inv F
  0.000000  0.333333  0.000000    0.01234568  16 t-inv F
  0.111111  0.333333  0.000000    0.01234568  17 t-inv F
  0.222222  0.333333  0.000000    0.01234568  18 t-inv F
  0.333333  0.333333  0.000000    0.01234568  19 t-inv F
 -0.222222  0.333333  0.000000    0.01234568  20 t-inv F
  0.000000  0.444444  0.000000    0.01234568  21 t-inv F
  0.111111  0.444444  0.000000    0.01234568  22 t-inv F
  0.222222  0.444444  0.000000    0.01234568  23 t-inv F
 -0.333333  0.444444  0.000000    0.01234568  24 t-inv F
 -0.222222  0.444444  0.000000    0.01234568  25 t-inv F
  0.111111 -0.111111  0.000000    0.01234568   6 t-inv F
  0.222222 -0.111111  0.000000    0.01234568   7 t-inv F
  0.333333 -0.111111  0.000000    0.01234568   8 t-inv F
  0.444444 -0.111111  0.000000    0.01234568   9 t-inv F
  0.555556 -0.111111  0.000000    0.01234568  10 t-inv F
  0.222222 -0.222222  0.000000    0.01234568  11 t-inv F
  0.333333 -0.222222  0.000000    0.01234568  12 t-inv F
  0.444444 -0.222222  0.000000    0.01234568  13 t-inv F
  0.555556 -0.222222  0.000000    0.01234568  14 t-inv F
  0.111111 -0.222222  0.000000    0.01234568  15 t-inv F
  0.333333 -0.333333  0.000000    0.01234568  16 t-inv F
  0.444444 -0.333333  0.000000    0.01234568  17 t-inv F
  0.555556 -0.333333  0.000000    0.01234568  18 t-inv F
  0.666667 -0.333333  0.000000    0.01234568  19 t-inv F
  0.111111 -0.333333  0.000000    0.01234568  20 t-inv F
  0.444444 -0.444444  0.000000    0.01234568  21 t-inv F
  0.555556 -0.444444  0.000000    0.01234568  22 t-inv F
  0.666667 -0.444444  0.000000    0.01234568  23 t-inv F
  0.111111 -0.444444  0.000000    0.01234568  24 t-inv F
  0.222222 -0.444444  0.000000    0.01234568  25 t-inv F
 -0.111111  0.000000  0.000000    0.01234568   2 t-inv T
 -0.222222  0.000000  0.000000    0.01234568   3 t-inv T
 -0.333333 -0.000000  0.000000    0.01234568   4 t-inv T
 -0.444444  0.000000  0.000000    0.01234568   5 t-inv T
  0.000000 -0.111111  0.000000    0.01234568   6 t-inv T
 -0.111111  0.111111  0.000000    0.01234568   6 t-inv T
 -0.111111 -0.111111  0.000000    0.01234568   7 t-inv T
 -0.222222  0.111111  0.000000    0.01234568   7 t-inv T
 -0.222222 -0.111111  0.000000    0.01234568   8 t-inv T
 -0.333333  0.111111  0.000000    0.01234568   8 t-inv T
 -0.333333 -0.111111  0.000000    0.01234568   9 t-inv T
 -0.444444  0.111111  0.000000    0.01234568   9 t-inv T
  0.000000 -0.222222  0.000000    0.01234568  11 t-inv T
 -0.222222  0.222222  0.000000    0.01234568  11 t-inv T
 -0.111111 -0.222222  0.000000    0.01234568  12 t-inv T
 -0.333333  0.222222  0.000000    0.01234568  12 t-inv T
 -0.222222 -0.222222  0.000000    0.01234568  13 t-inv T
 -0.444444  0.222222  0.000000    0.01234568  13 t-inv T
 -0.333333 -0.222222  0.000000    0.01234568  14 t-inv T
 -0.555556  0.222222  0.000000    0.01234568  14 t-inv T
 -0.000000 -0.333333  0.000000    0.01234568  16 t-inv T
 -0.333333  0.333333  0.000000    0.01234568  16 t-inv T
 -0.111111 -0.333333  0.000000    0.01234568  17 t-inv T
 -0.444444  0.333333  0.000000    0.01234568  17 t-inv T
 -0.222222 -0.333333  0.000000    0.01234568  18 t-inv T
 -0.555556  0.333333  0.000000    0.01234568  18 t-inv T
  0.222222 -0.333333  0.000000    0.01234568  20 t-inv T
 -0.111111  0.333333  0.000000    0.01234568  20 t-inv T
  0.000000 -0.444444  0.000000    0.01234568  21 t-inv T
 -0.444444  0.444444  0.000000    0.01234568  21 t-inv T
 -0.111111 -0.444444  0.000000    0.01234568  22 t-inv T
 -0.555556  0.444444  0.000000    0.01234568  22 t-inv T
 -0.222222 -0.444444  0.000000    0.01234568  23 t-inv T
 -0.666667  0.444444  0.000000    0.01234568  23 t-inv T
  0.333333 -0.444444  0.000000    0.01234568  24 t-inv T
 -0.111111  0.444444  0.000000    0.01234568  24 t-inv T


--------------------------------------------------------------------------------------------------------




 Dimension of arrays:
   k-points           NKPTS =     25   k-points in BZ     NKDIM =     25   number of bands    NBANDS=     60
   number of dos      NEDOS =    301   number of ions     NIONS =      3
   non local maximal  LDIM  =      6   non local SUM 2l+1 LMDIM =     18
   total plane-waves  NPLWV = 184320
   max r-space proj   IRMAX =      1   max aug-charges    IRDMAX=  25146
   dimension x,y,z NGX =    24 NGY =   24 NGZ =  320
   dimension x,y,z NGXF=    48 NGYF=   48 NGZF=  640
   support grid    NGXF=    48 NGYF=   48 NGZF=  640
   ions per type =               1   2
   NGX,Y,Z   is equivalent  to a cutoff of  12.51, 12.51, 11.12 a.u.
   NGXF,Y,Z  is equivalent  to a cutoff of  25.02, 25.02, 22.24 a.u.

 SYSTEM =  MoS2_ml                                 
 POSCAR =  w2 monolayer                            

 Startparameter for this run:
   NWRITE =      2    write-flag & timer
   PREC   = acc       normal or accurate (medium, high low for compatibility)
   ISTART =      0    job   : 0-new  1-cont  2-samecut
   ICHARG =      2    charge: 1-file 2-atom 10-const
   ISPIN  =      1    spin polarized calculation?
   LNONCOLLINEAR =      F non collinear calculations
   LSORBIT =      F    spin-orbit coupling
   INIWAV =      1    electr: 0-lowe 1-rand  2-diag
   LASPH  =      F    aspherical Exc in radial PAW
   METAGGA=      F    non-selfconsistent MetaGGA calc.

 Electronic Relaxation 1
   ENCUT  =  400.0 eV  29.40 Ry    5.42 a.u.   5.20  5.20 78.03*2*pi/ulx,y,z
   ENINI  =  400.0     initial cutoff
   ENAUG  =  373.4 eV  augmentation charge cutoff
   NELM   =     50;   NELMIN=  2; NELMDL= -5     # of ELM steps 
   EDIFF  = 0.1E-07   stopping-criterion for ELM
   LREAL  =      F    real-space projection
   NLSPLINE    = F    spline interpolate recip. space projectors
   LCOMPAT=      F    compatible to vasp.4.4
   GGA_COMPAT  = T    GGA compatible to vasp.4.4-vasp.4.6
   LMAXPAW     = -100 max onsite density
   LMAXMIX     =    2 max onsite mixed and CHGCAR
   VOSKOWN=      0    Vosko Wilk Nusair interpolation
   ROPT   =    0.00000   0.00000
 Ionic relaxation
   EDIFFG = 0.1E-06   stopping-criterion for IOM
   NSW    =      0    number of steps for IOM
   NBLOCK =      1;   KBLOCK =      1    inner block; outer block 
   IBRION =     -1    ionic relax: 0-MD 1-quasi-New 2-CG
   NFREE  =      0    steps in history (QN), initial steepest desc. (CG)
   ISIF   =      2    stress and relaxation
   IWAVPR =     10    prediction:  0-non 1-charg 2-wave 3-comb
   ISYM   =      2    0-nonsym 1-usesym 2-fastsym
   LCORR  =      T    Harris-Foulkes like correction to forces

   POTIM  = 0.5000    time-step for ionic-motion
   TEIN   =    0.0    initial temperature
   TEBEG  =    0.0;   TEEND  =   0.0 temperature during run
   SMASS  =  -3.00    Nose mass-parameter (am)
   estimated Nose-frequenzy (Omega)   =  0.10E-29 period in steps =****** mass=  -0.233E-27a.u.
   SCALEE = 1.0000    scale energy and forces
   NPACO  =    256;   APACO  = 16.0  distance and # of slots for P.C.
   PSTRESS=    0.0 pullay stress

  Mass of Ions in am
   POMASS = 183.85 32.07
  Ionic Valenz
   ZVAL   =   6.00  6.00
  Atomic Wigner-Seitz radii
   RWIGS  =  -1.00 -1.00
  virtual crystal weights 
   VCA    =   1.00  1.00
   NELECT =      18.0000    total number of electrons
   NUPDOWN=      -1.0000    fix difference up-down

 DOS related values:
   EMIN   =  10.00;   EMAX   =-10.00  energy-range for DOS
   EFERMI =   0.00
   ISMEAR =     0;   SIGMA  =   0.05  broadening in eV -4-tet -1-fermi 0-gaus

 Electronic relaxation 2 (details)
   IALGO  =     38    algorithm
   LDIAG  =      T    sub-space diagonalisation (order eigenvalues)
   LSUBROT=      F    optimize rotation matrix (better conditioning)
   TURBO    =      0    0=normal 1=particle mesh
   IRESTART =      0    0=no restart 2=restart with 2 vectors
   NREBOOT  =      0    no. of reboots
   NMIN     =      0    reboot dimension
   EREF     =   0.00    reference energy to select bands
   IMIX   =      4    mixing-type and parameters
     AMIX     =   0.40;   BMIX     =  1.00
     AMIX_MAG =   1.60;   BMIX_MAG =  1.00
     AMIN     =   0.10
     WC   =   100.;   INIMIX=   1;  MIXPRE=   1;  MAXMIX= -45

 Intra band minimization:
   WEIMIN = 0.0000     energy-eigenvalue tresh-hold
   EBREAK =  0.42E-10  absolut break condition
   DEPER  =   0.30     relativ break condition  

   TIME   =   0.40     timestep for ELM

  volume/ion in A,a.u.               =     140.56       948.57
  Fermi-wavevector in a.u.,A,eV,Ry     =   0.572138  1.081185  4.453761  0.327342
  Thomas-Fermi vector in A             =   1.612889
 
 Write flags
   LWAVE        =      T    write WAVECAR
   LDOWNSAMPLE  =      F    k-point downsampling of WAVECAR
   LCHARG       =      T    write CHGCAR
   LVTOT        =      F    write LOCPOT, total local potential
   LVHAR        =      F    write LOCPOT, Hartree potential only
   LELF         =      F    write electronic localiz. function (ELF)
   LORBIT       =     12    0 simple, 1 ext, 2 COOP (PROOUT), +10 PAW based schemes


 Dipole corrections
   LMONO  =      F    monopole corrections only (constant potential shift)
   LDIPOL =      F    correct potential (dipole corrections)
   IDIPOL =      0    1-x, 2-y, 3-z, 4-all directions 
   EPSILON=  1.0000000 bulk dielectric constant

 Exchange correlation treatment:
   GGA     =    --    GGA type
   LEXCH   =     8    internal setting for exchange type
   VOSKOWN=      0    Vosko Wilk Nusair interpolation
   LHFCALC =     F    Hartree Fock is set to
   LHFONE  =     F    Hartree Fock one center treatment
   AEXX    =    0.0000 exact exchange contribution

 Linear response parameters
   LEPSILON=     F    determine dielectric tensor
   LRPA    =     F    only Hartree local field effects (RPA)
   LNABLA  =     F    use nabla operator in PAW spheres
   LVEL    =     F    velocity operator in full k-point grid
   LINTERFAST=   F  fast interpolation
   KINTER  =     0    interpolate to denser k-point grid
   CSHIFT  =0.1000    complex shift for real part using Kramers Kronig
   OMEGAMAX=  -1.0    maximum frequency
   DEG_THRESHOLD= 0.2000000E-02 threshold for treating states as degnerate
   RTIME   =   -0.100 relaxation time in fs
  (WPLASMAI=    0.000 imaginary part of plasma frequency in eV, 0.658/RTIME)
   DFIELD  = 0.0000000 0.0000000 0.0000000 field for delta impulse in time
 
 Orbital magnetization related:
   ORBITALMAG=     F  switch on orbital magnetization
   LCHIMAG   =     F  perturbation theory with respect to B field
   DQ        =  0.001000  dq finite difference perturbation B field
   LLRAUG    =     F  two centre corrections for induced B field



--------------------------------------------------------------------------------------------------------


 Static calculation
 charge density and potential will be updated during run
 non-spin polarized calculation
 Variant of blocked Davidson
 Davidson routine will perform the subspace rotation
 perform sub-space diagonalisation
    after iterative eigenvector-optimisation
 modified Broyden-mixing scheme, WC =      100.0
 initial mixing is a Kerker type mixing with AMIX =  0.4000 and BMIX =      1.0000
 Hartree-type preconditioning will be used
 using additional bands           51
 reciprocal scheme for non local part
 use partial core corrections
 calculate Harris-corrections to forces 
   (improved forces if not selfconsistent)
 use gradient corrections 
 use of overlap-Matrix (Vanderbilt PP)
 Gauss-broadening in eV      SIGMA  =   0.05


--------------------------------------------------------------------------------------------------------


  energy-cutoff  :      400.00
  volume of cell :      421.69
      direct lattice vectors                 reciprocal lattice vectors
     1.595000000 -2.762621038  0.000000000     0.313479624 -0.180987545  0.000000000
     1.595000000  2.762621038  0.000000000     0.313479624  0.180987545  0.000000000
     0.000000000  0.000000000 47.850000000     0.000000000  0.000000000  0.020898642

  length of vectors
     3.190000000  3.190000000 47.850000000     0.361975090  0.361975090  0.020898642


 
 k-points in units of 2pi/SCALE and weight: mos2 mono                               
   0.00000000  0.00000000  0.00000000       0.012
   0.11111111 -0.06415003  0.00000000       0.025
   0.22222222 -0.12830006  0.00000000       0.025
   0.33333333 -0.19245009  0.00000000       0.025
   0.44444444 -0.25660012  0.00000000       0.025
   0.11111111  0.06415003  0.00000000       0.049
   0.22222222  0.00000000  0.00000000       0.049
   0.33333333 -0.06415003  0.00000000       0.049
   0.44444444 -0.12830006  0.00000000       0.049
   0.55555556 -0.19245009  0.00000000       0.025
   0.22222222  0.12830006  0.00000000       0.049
   0.33333333  0.06415003  0.00000000       0.049
   0.44444444  0.00000000  0.00000000       0.049
   0.55555556 -0.06415003  0.00000000       0.049
   0.11111111  0.19245009  0.00000000       0.025
   0.33333333  0.19245009  0.00000000       0.049
   0.44444444  0.12830006  0.00000000       0.049
   0.55555556  0.06415003  0.00000000       0.049
   0.66666667  0.00000000  0.00000000       0.025
   0.11111111  0.32075015  0.00000000       0.049
   0.44444444  0.25660012  0.00000000       0.049
   0.55555556  0.19245009  0.00000000       0.049
   0.66666667  0.12830006  0.00000000       0.049
   0.11111111  0.44905021  0.00000000       0.049
   0.22222222  0.38490018  0.00000000       0.025
 
 k-points in reciprocal lattice and weights: mos2 mono                               
   0.00000000  0.00000000  0.00000000       0.012
   0.11111111 -0.00000000  0.00000000       0.025
   0.22222222  0.00000000  0.00000000       0.025
   0.33333333  0.00000000  0.00000000       0.025
   0.44444444  0.00000000  0.00000000       0.025
  -0.00000000  0.11111111  0.00000000       0.049
   0.11111111  0.11111111  0.00000000       0.049
   0.22222222  0.11111111  0.00000000       0.049
   0.33333333  0.11111111  0.00000000       0.049
   0.44444444  0.11111111  0.00000000       0.025
   0.00000000  0.22222222  0.00000000       0.049
   0.11111111  0.22222222  0.00000000       0.049
   0.22222222  0.22222222  0.00000000       0.049
   0.33333333  0.22222222  0.00000000       0.049
  -0.11111111  0.22222222  0.00000000       0.025
   0.00000000  0.33333333  0.00000000       0.049
   0.11111111  0.33333333  0.00000000       0.049
   0.22222222  0.33333333  0.00000000       0.049
   0.33333333  0.33333333  0.00000000       0.025
  -0.22222222  0.33333333  0.00000000       0.049
   0.00000000  0.44444444  0.00000000       0.049
   0.11111111  0.44444444  0.00000000       0.049
   0.22222222  0.44444444  0.00000000       0.049
  -0.33333333  0.44444444  0.00000000       0.049
  -0.22222222  0.44444444  0.00000000       0.025
 
 position of ions in fractional coordinates (direct lattice) 
   0.00000000  0.00000000  0.03270000
   0.66666660  0.33333330  0.99995258
   0.66666660  0.33333330  0.06544742
 
 position of ions in cartesian coordinates  (Angst):
   0.00000000  0.00000000  1.56469500
   1.59499984 -0.92087359 47.84773112
   1.59499984 -0.92087359  3.13165888
 


--------------------------------------------------------------------------------------------------------


 k-point  1 :   0.0000 0.0000 0.0000  plane waves:    7609
 k-point  2 :   0.1111-0.0000 0.0000  plane waves:    7619
 k-point  3 :   0.2222 0.0000 0.0000  plane waves:    7629
 k-point  4 :   0.3333 0.0000 0.0000  plane waves:    7695
 k-point  5 :   0.4444 0.0000 0.0000  plane waves:    7715
 k-point  6 :  -0.0000 0.1111 0.0000  plane waves:    7619
 k-point  7 :   0.1111 0.1111 0.0000  plane waves:    7643
 k-point  8 :   0.2222 0.1111 0.0000  plane waves:    7668
 k-point  9 :   0.3333 0.1111 0.0000  plane waves:    7675
 k-point 10 :   0.4444 0.1111 0.0000  plane waves:    7670
 k-point 11 :   0.0000 0.2222 0.0000  plane waves:    7629
 k-point 12 :   0.1111 0.2222 0.0000  plane waves:    7668
 k-point 13 :   0.2222 0.2222 0.0000  plane waves:    7641
 k-point 14 :   0.3333 0.2222 0.0000  plane waves:    7640
 k-point 15 :  -0.1111 0.2222 0.0000  plane waves:    7643
 k-point 16 :   0.0000 0.3333 0.0000  plane waves:    7695
 k-point 17 :   0.1111 0.3333 0.0000  plane waves:    7675
 k-point 18 :   0.2222 0.3333 0.0000  plane waves:    7640
 k-point 19 :   0.3333 0.3333 0.0000  plane waves:    7575
 k-point 20 :  -0.2222 0.3333 0.0000  plane waves:    7668
 k-point 21 :   0.0000 0.4444 0.0000  plane waves:    7715
 k-point 22 :   0.1111 0.4444 0.0000  plane waves:    7670
 k-point 23 :   0.2222 0.4444 0.0000  plane waves:    7640
 k-point 24 :  -0.3333 0.4444 0.0000  plane waves:    7675
 k-point 25 :  -0.2222 0.4444 0.0000  plane waves:    7641

 maximum and minimum number of plane-waves per node :      7715     7575

 maximum number of plane-waves:      7715
 maximum index in each direction: 
   IXMAX=    5   IYMAX=    5   IZMAX=   78
   IXMIN=   -5   IYMIN=   -5   IZMIN=  -78


 serial   3D FFT for wavefunctions
 parallel 3D FFT for charge:
    minimum data exchange during FFTs selected (reduces bandwidth)


 total amount of memory used by VASP MPI-rank0   200213. kBytes
=======================================================================

   base      :      30000. kBytes
   nonl-proj :      55925. kBytes
   fftplans  :      17258. kBytes
   grid      :      34968. kBytes
   one-center:         46. kBytes
   wavefun   :      62016. kBytes
 
     INWAV:  cpu time    0.0000: real time    0.0001
 Broyden mixing: mesh for mixing (old mesh)
   NGX = 11   NGY = 11   NGZ =157
  (NGX  = 48   NGY  = 48   NGZ  =640)
  gives a total of  18997 points

 initial charge density was supplied:
 charge density of overlapping atoms calculated
 number of electron      18.0000000 magnetization 
 keeping initial charge density in first step


--------------------------------------------------------------------------------------------------------


 Maximum index for augmentation-charges         8047 (set IRDMAX)


--------------------------------------------------------------------------------------------------------


 First call to EWALD:  gamma=   0.236
 Maximum number of real-space cells 7x 7x 1
 Maximum number of reciprocal cells 1x 1x15

    FEWALD:  cpu time    0.0016: real time    0.0016


--------------------------------------- Iteration      1(   1)  ---------------------------------------


    POTLOK:  cpu time    0.3608: real time    0.4438
    SETDIJ:  cpu time    0.0022: real time    0.0022
     EDDAV:  cpu time    2.1314: real time    2.1957
       DOS:  cpu time    0.0008: real time    0.0008
    --------------------------------------------
      LOOP:  cpu time    2.4952: real time    2.6425

 eigenvalue-minimisations  :  3036
 total energy-change (2. order) : 0.9003286E+02  (-0.3806051E+03)
 number of electron      18.0000000 magnetization 
 augmentation part       18.0000000 magnetization 

 Free energy of the ion-electron system (eV)
  ---------------------------------------------------
  alpha Z        PSCENC =         7.33280054
  Ewald energy   TEWEN  =     10009.09368963
  -Hartree energ DENC   =    -10653.53748437
  -exchange      EXHF   =         0.00000000
  -V(xc)+E(xc)   XCENC  =       -23.07440454
  PAW double counting   =       676.83257565     -611.31410498
  entropy T*S    EENTRO =        -0.00345669
  eigenvalues    EBANDS =       -73.54145796
  atomic energy  EATOM  =       758.24470327
  Solvation  Ediel_sol  =         0.00000000
  ---------------------------------------------------
  free energy    TOTEN  =        90.03286056 eV

  energy without entropy =       90.03631725  energy(sigma->0) =       90.03458891


--------------------------------------------------------------------------------------------------------




--------------------------------------- Iteration      1(   2)  ---------------------------------------


     EDDAV:  cpu time    2.5202: real time    2.5253
       DOS:  cpu time    0.0006: real time    0.0006
    --------------------------------------------
      LOOP:  cpu time    2.5208: real time    2.5259

 eigenvalue-minimisations  :  4053
 total energy-change (2. order) :-0.1056443E+03  (-0.9538083E+02)
 number of electron      18.0000000 magnetization 
 augmentation part       18.0000000 magnetization 

 Free energy of the ion-electron system (eV)
  ---------------------------------------------------
  alpha Z        PSCENC =         7.33280054
  Ewald energy   TEWEN  =     10009.09368963
  -Hartree energ DENC   =    -10653.53748437
  -exchange      EXHF   =         0.00000000
  -V(xc)+E(xc)   XCENC  =       -23.07440454
  PAW double counting   =       676.83257565     -611.31410498
  entropy T*S    EENTRO =        -0.00000000
  eigenvalues    EBANDS =      -179.18925988
  atomic energy  EATOM  =       758.24470327
  Solvation  Ediel_sol  =         0.00000000
  ---------------------------------------------------
  free energy    TOTEN  =       -15.61148467 eV

  energy without entropy =      -15.61148467  energy(sigma->0) =      -15.61148467


--------------------------------------------------------------------------------------------------------




--------------------------------------- Iteration      1(   3)  ---------------------------------------


     EDDAV:  cpu time    2.4493: real time    2.4532
       DOS:  cpu time    0.0004: real time    0.0004
    --------------------------------------------
      LOOP:  cpu time    2.4497: real time    2.4536

 eigenvalue-minimisations  :  3939
 total energy-change (2. order) :-0.9440674E+01  (-0.9263800E+01)
 number of electron      18.0000000 magnetization 
 augmentation part       18.0000000 magnetization 

 Free energy of the ion-electron system (eV)
  ---------------------------------------------------
  alpha Z        PSCENC =         7.33280054
  Ewald energy   TEWEN  =     10009.09368963
  -Hartree energ DENC   =    -10653.53748437
  -exchange      EXHF   =         0.00000000
  -V(xc)+E(xc)   XCENC  =       -23.07440454
  PAW double counting   =       676.83257565     -611.31410498
  entropy T*S    EENTRO =        -0.00000000
  eigenvalues    EBANDS =      -188.62993368
  atomic energy  EATOM  =       758.24470327
  Solvation  Ediel_sol  =         0.00000000
  ---------------------------------------------------
  free energy    TOTEN  =       -25.05215847 eV

  energy without entropy =      -25.05215847  energy(sigma->0) =      -25.05215847


--------------------------------------------------------------------------------------------------------




--------------------------------------- Iteration      1(   4)  ---------------------------------------


     EDDAV:  cpu time    2.3648: real time    2.3666
       DOS:  cpu time    0.0004: real time    0.0004
    --------------------------------------------
      LOOP:  cpu time    2.3652: real time    2.3670

 eigenvalue-minimisations  :  3609
 total energy-change (2. order) :-0.1533306E+00  (-0.1532432E+00)
 number of electron      18.0000000 magnetization 
 augmentation part       18.0000000 magnetization 

 Free energy of the ion-electron system (eV)
  ---------------------------------------------------
  alpha Z        PSCENC =         7.33280054
  Ewald energy   TEWEN  =     10009.09368963
  -Hartree energ DENC   =    -10653.53748437
  -exchange      EXHF   =         0.00000000
  -V(xc)+E(xc)   XCENC  =       -23.07440454
  PAW double counting   =       676.83257565     -611.31410498
  entropy T*S    EENTRO =        -0.00000000
  eigenvalues    EBANDS =      -188.78326425
  atomic energy  EATOM  =       758.24470327
  Solvation  Ediel_sol  =         0.00000000
  ---------------------------------------------------
  free energy    TOTEN  =       -25.20548904 eV

  energy without entropy =      -25.20548904  energy(sigma->0) =      -25.20548904


--------------------------------------------------------------------------------------------------------




--------------------------------------- Iteration      1(   5)  ---------------------------------------


     EDDAV:  cpu time    2.4668: real time    2.4708
       DOS:  cpu time    0.0004: real time    0.0004
    CHARGE:  cpu time    0.0973: real time    0.0973
    MIXING:  cpu time    0.0153: real time    0.0153
    --------------------------------------------
      LOOP:  cpu time    2.5797: real time    2.5837

 eigenvalue-minimisations  :  3969
 total energy-change (2. order) :-0.3761606E-02  (-0.3761405E-02)
 number of electron      18.0000001 magnetization 
 augmentation part       -1.2306843 magnetization 

 Broyden mixing:
  rms(total) = 0.27317E+01    rms(broyden)= 0.27317E+01
  rms(prec ) = 0.27356E+01
  weight for this iteration     100.00

 Free energy of the ion-electron system (eV)
  ---------------------------------------------------
  alpha Z        PSCENC =         7.33280054
  Ewald energy   TEWEN  =     10009.09368963
  -Hartree energ DENC   =    -10653.53748437
  -exchange      EXHF   =         0.00000000
  -V(xc)+E(xc)   XCENC  =       -23.07440454
  PAW double counting   =       676.83257565     -611.31410498
  entropy T*S    EENTRO =        -0.00000000
  eigenvalues    EBANDS =      -188.78702586
  atomic energy  EATOM  =       758.24470327
  Solvation  Ediel_sol  =         0.00000000
  ---------------------------------------------------
  free energy    TOTEN  =       -25.20925065 eV

  energy without entropy =      -25.20925065  energy(sigma->0) =      -25.20925065


--------------------------------------------------------------------------------------------------------




--------------------------------------- Iteration      1(   6)  ---------------------------------------


    POTLOK:  cpu time    0.4107: real time    0.4116
    SETDIJ:  cpu time    0.0021: real time    0.0021
     EDDAV:  cpu time    2.6199: real time    2.6512
       DOS:  cpu time    0.0023: real time    0.0023
    CHARGE:  cpu time    0.0980: real time    0.0997
    MIXING:  cpu time    0.0155: real time    0.0159
    --------------------------------------------
      LOOP:  cpu time    3.1484: real time    3.1828

 eigenvalue-minimisations  :  4377
 total energy-change (2. order) : 0.1278351E+01  (-0.8066843E-01)
 number of electron      18.0000001 magnetization 
 augmentation part       -0.9279804 magnetization 

 Broyden mixing:
  rms(total) = 0.11480E+01    rms(broyden)= 0.11480E+01
  rms(prec ) = 0.11496E+01
  weight for this iteration     100.00

 eigenvalues of (default mixing * dielectric matrix)
  average eigenvalue GAMMA=   1.4973
  1.4973

 Free energy of the ion-electron system (eV)
  ---------------------------------------------------
  alpha Z        PSCENC =         7.33280054
  Ewald energy   TEWEN  =     10009.09368963
  -Hartree energ DENC   =    -10653.38027359
  -exchange      EXHF   =         0.00000000
  -V(xc)+E(xc)   XCENC  =       -22.19316582
  PAW double counting   =      1121.84167652    -1057.28835167
  entropy T*S    EENTRO =        -0.00000000
  eigenvalues    EBANDS =      -187.58197851
  atomic energy  EATOM  =       758.24470327
  Solvation  Ediel_sol  =         0.00000000
  ---------------------------------------------------
  free energy    TOTEN  =       -23.93089963 eV

  energy without entropy =      -23.93089963  energy(sigma->0) =      -23.93089963


--------------------------------------------------------------------------------------------------------




--------------------------------------- Iteration      1(   7)  ---------------------------------------


    POTLOK:  cpu time    0.3728: real time    0.3810
    SETDIJ:  cpu time    0.0065: real time    0.0065
     EDDAV:  cpu time    2.2433: real time    2.2734
       DOS:  cpu time    0.0021: real time    0.0021
    CHARGE:  cpu time    0.0913: real time    0.0914
    MIXING:  cpu time    0.0167: real time    0.0169
    --------------------------------------------
      LOOP:  cpu time    2.7326: real time    2.7712

 eigenvalue-minimisations  :  3435
 total energy-change (2. order) : 0.1342490E+00  (-0.3008887E-01)
 number of electron      18.0000001 magnetization 
 augmentation part       -1.0352857 magnetization 

 Broyden mixing:
  rms(total) = 0.64577E+00    rms(broyden)= 0.64577E+00
  rms(prec ) = 0.64710E+00
  weight for this iteration     100.00

 eigenvalues of (default mixing * dielectric matrix)
  average eigenvalue GAMMA=   1.5253
  0.7437  2.3070

 Free energy of the ion-electron system (eV)
  ---------------------------------------------------
  alpha Z        PSCENC =         7.33280054
  Ewald energy   TEWEN  =     10009.09368963
  -Hartree energ DENC   =    -10661.36898823
  -exchange      EXHF   =         0.00000000
  -V(xc)+E(xc)   XCENC  =       -22.16603924
  PAW double counting   =      1623.78717015    -1559.63676416
  entropy T*S    EENTRO =        -0.00000000
  eigenvalues    EBANDS =      -179.08322261
  atomic energy  EATOM  =       758.24470327
  Solvation  Ediel_sol  =         0.00000000
  ---------------------------------------------------
  free energy    TOTEN  =       -23.79665066 eV

  energy without entropy =      -23.79665066  energy(sigma->0) =      -23.79665066


--------------------------------------------------------------------------------------------------------




--------------------------------------- Iteration      1(   8)  ---------------------------------------


    POTLOK:  cpu time    0.3878: real time    0.3882
    SETDIJ:  cpu time    0.0041: real time    0.0041
     EDDAV:  cpu time    2.3905: real time    2.3920
       DOS:  cpu time    0.0007: real time    0.0007
    CHARGE:  cpu time    0.0942: real time    0.0942
    MIXING:  cpu time    0.0154: real time    0.0154
    --------------------------------------------
      LOOP:  cpu time    2.8927: real time    2.8948

 eigenvalue-minimisations  :  3879
 total energy-change (2. order) : 0.7779146E-01  (-0.1037212E-01)
 number of electron      18.0000001 magnetization 
 augmentation part       -0.9595298 magnetization 

 Broyden mixing:
  rms(total) = 0.50071E-01    rms(broyden)= 0.50070E-01
  rms(prec ) = 0.50681E-01
  weight for this iteration     100.00

 eigenvalues of (default mixing * dielectric matrix)
  average eigenvalue GAMMA=   1.4355
  2.3710  1.2221  0.7134

 Free energy of the ion-electron system (eV)
  ---------------------------------------------------
  alpha Z        PSCENC =         7.33280054
  Ewald energy   TEWEN  =     10009.09368963
  -Hartree energ DENC   =    -10662.45747371
  -exchange      EXHF   =         0.00000000
  -V(xc)+E(xc)   XCENC  =       -21.86088554
  PAW double counting   =      1995.10154996    -1931.27834396
  entropy T*S    EENTRO =        -0.00000000
  eigenvalues    EBANDS =      -177.89489938
  atomic energy  EATOM  =       758.24470327
  Solvation  Ediel_sol  =         0.00000000
  ---------------------------------------------------
  free energy    TOTEN  =       -23.71885919 eV

  energy without entropy =      -23.71885919  energy(sigma->0) =      -23.71885919


--------------------------------------------------------------------------------------------------------




--------------------------------------- Iteration      1(   9)  ---------------------------------------


    POTLOK:  cpu time    0.3918: real time    0.3923
    SETDIJ:  cpu time    0.0039: real time    0.0039
     EDDAV:  cpu time    2.3202: real time    2.3219
       DOS:  cpu time    0.0024: real time    0.0024
    CHARGE:  cpu time    0.0905: real time    0.0906
    MIXING:  cpu time    0.0196: real time    0.0196
    --------------------------------------------
      LOOP:  cpu time    2.8285: real time    2.8307

 eigenvalue-minimisations  :  3537
 total energy-change (2. order) : 0.3296651E-02  (-0.2236076E-02)
 number of electron      18.0000001 magnetization 
 augmentation part       -0.9593803 magnetization 

 Broyden mixing:
  rms(total) = 0.45605E-01    rms(broyden)= 0.45605E-01
  rms(prec ) = 0.45817E-01
  weight for this iteration     100.00

 eigenvalues of (default mixing * dielectric matrix)
  average eigenvalue GAMMA=   1.4185
  2.6793  1.5484  0.7397  0.7065

 Free energy of the ion-electron system (eV)
  ---------------------------------------------------
  alpha Z        PSCENC =         7.33280054
  Ewald energy   TEWEN  =     10009.09368963
  -Hartree energ DENC   =    -10662.94795889
  -exchange      EXHF   =         0.00000000
  -V(xc)+E(xc)   XCENC  =       -21.84810916
  PAW double counting   =      2025.54397861    -1961.72928769
  entropy T*S    EENTRO =        -0.00000000
  eigenvalues    EBANDS =      -177.40537885
  atomic energy  EATOM  =       758.24470327
  Solvation  Ediel_sol  =         0.00000000
  ---------------------------------------------------
  free energy    TOTEN  =       -23.71556254 eV

  energy without entropy =      -23.71556254  energy(sigma->0) =      -23.71556254


--------------------------------------------------------------------------------------------------------




--------------------------------------- Iteration      1(  10)  ---------------------------------------


    POTLOK:  cpu time    0.3982: real time    0.3984
    SETDIJ:  cpu time    0.0076: real time    0.0076
     EDDAV:  cpu time    2.4534: real time    2.4543
       DOS:  cpu time    0.0008: real time    0.0008
    CHARGE:  cpu time    0.1096: real time    0.1097
    MIXING:  cpu time    0.0168: real time    0.0168
    --------------------------------------------
      LOOP:  cpu time    2.9866: real time    2.9877

 eigenvalue-minimisations  :  3786
 total energy-change (2. order) : 0.7293389E-03  (-0.4319428E-03)
 number of electron      18.0000001 magnetization 
 augmentation part       -0.9648610 magnetization 

 Broyden mixing:
  rms(total) = 0.24536E-01    rms(broyden)= 0.24536E-01
  rms(prec ) = 0.24655E-01
  weight for this iteration     100.00

 eigenvalues of (default mixing * dielectric matrix)
  average eigenvalue GAMMA=   1.3133
  2.3386  1.6397  0.7592  0.9144  0.9144

 Free energy of the ion-electron system (eV)
  ---------------------------------------------------
  alpha Z        PSCENC =         7.33280054
  Ewald energy   TEWEN  =     10009.09368963
  -Hartree energ DENC   =    -10663.84069014
  -exchange      EXHF   =         0.00000000
  -V(xc)+E(xc)   XCENC  =       -21.83693824
  PAW double counting   =      2076.99307460    -2013.19027241
  entropy T*S    EENTRO =        -0.00000000
  eigenvalues    EBANDS =      -176.51120044
  atomic energy  EATOM  =       758.24470327
  Solvation  Ediel_sol  =         0.00000000
  ---------------------------------------------------
  free energy    TOTEN  =       -23.71483320 eV

  energy without entropy =      -23.71483320  energy(sigma->0) =      -23.71483320


--------------------------------------------------------------------------------------------------------




--------------------------------------- Iteration      1(  11)  ---------------------------------------


    POTLOK:  cpu time    0.3880: real time    0.3892
    SETDIJ:  cpu time    0.0191: real time    0.0191
     EDDAV:  cpu time    2.3048: real time    2.3054
       DOS:  cpu time    0.0007: real time    0.0007
    CHARGE:  cpu time    0.0970: real time    0.0970
    MIXING:  cpu time    0.0168: real time    0.0168
    --------------------------------------------
      LOOP:  cpu time    2.8263: real time    2.8282

 eigenvalue-minimisations  :  3579
 total energy-change (2. order) : 0.1005851E-03  (-0.2681815E-04)
 number of electron      18.0000001 magnetization 
 augmentation part       -0.9641002 magnetization 

 Broyden mixing:
  rms(total) = 0.21894E-01    rms(broyden)= 0.21894E-01
  rms(prec ) = 0.21992E-01
  weight for this iteration     100.00

 eigenvalues of (default mixing * dielectric matrix)
  average eigenvalue GAMMA=   1.5436
  2.6783  2.4536  1.2871  1.2871  0.7680  0.7873

 Free energy of the ion-electron system (eV)
  ---------------------------------------------------
  alpha Z        PSCENC =         7.33280054
  Ewald energy   TEWEN  =     10009.09368963
  -Hartree energ DENC   =    -10664.09288981
  -exchange      EXHF   =         0.00000000
  -V(xc)+E(xc)   XCENC  =       -21.84075099
  PAW double counting   =      2055.06589394    -1991.24547779
  entropy T*S    EENTRO =        -0.00000000
  eigenvalues    EBANDS =      -176.27270140
  atomic energy  EATOM  =       758.24470327
  Solvation  Ediel_sol  =         0.00000000
  ---------------------------------------------------
  free energy    TOTEN  =       -23.71473262 eV

  energy without entropy =      -23.71473262  energy(sigma->0) =      -23.71473262


--------------------------------------------------------------------------------------------------------




--------------------------------------- Iteration      1(  12)  ---------------------------------------


    POTLOK:  cpu time    0.3891: real time    0.3904
    SETDIJ:  cpu time    0.0107: real time    0.0107
     EDDAV:  cpu time    2.3349: real time    2.3354
       DOS:  cpu time    0.0031: real time    0.0031
    CHARGE:  cpu time    0.0934: real time    0.0935
    MIXING:  cpu time    0.0178: real time    0.0178
    --------------------------------------------
      LOOP:  cpu time    2.8490: real time    2.8507

 eigenvalue-minimisations  :  3534
 total energy-change (2. order) : 0.2672979E-03  (-0.8229304E-05)
 number of electron      18.0000001 magnetization 
 augmentation part       -0.9642757 magnetization 

 Broyden mixing:
  rms(total) = 0.80630E-02    rms(broyden)= 0.80630E-02
  rms(prec ) = 0.81479E-02
  weight for this iteration     100.00

 eigenvalues of (default mixing * dielectric matrix)
  average eigenvalue GAMMA=   1.4371
  2.5064  2.5064  1.2465  1.2465  0.7637  0.8950  0.8950

 Free energy of the ion-electron system (eV)
  ---------------------------------------------------
  alpha Z        PSCENC =         7.33280054
  Ewald energy   TEWEN  =     10009.09368963
  -Hartree energ DENC   =    -10665.35485359
  -exchange      EXHF   =         0.00000000
  -V(xc)+E(xc)   XCENC  =       -21.82522437
  PAW double counting   =      2069.06816234    -2005.24639997
  entropy T*S    EENTRO =        -0.00000000
  eigenvalues    EBANDS =      -175.02734316
  atomic energy  EATOM  =       758.24470327
  Solvation  Ediel_sol  =         0.00000000
  ---------------------------------------------------
  free energy    TOTEN  =       -23.71446532 eV

  energy without entropy =      -23.71446532  energy(sigma->0) =      -23.71446532


--------------------------------------------------------------------------------------------------------




--------------------------------------- Iteration      1(  13)  ---------------------------------------


    POTLOK:  cpu time    0.3900: real time    0.3908
    SETDIJ:  cpu time    0.0097: real time    0.0097
     EDDAV:  cpu time    2.4049: real time    2.4056
       DOS:  cpu time    0.0008: real time    0.0008
    CHARGE:  cpu time    0.0959: real time    0.0959
    MIXING:  cpu time    0.0156: real time    0.0156
    --------------------------------------------
      LOOP:  cpu time    2.9171: real time    2.9185

 eigenvalue-minimisations  :  3768
 total energy-change (2. order) :-0.1658707E-04  (-0.1655885E-05)
 number of electron      18.0000001 magnetization 
 augmentation part       -0.9634742 magnetization 

 Broyden mixing:
  rms(total) = 0.32253E-02    rms(broyden)= 0.32253E-02
  rms(prec ) = 0.33791E-02
  weight for this iteration     100.00

 eigenvalues of (default mixing * dielectric matrix)
  average eigenvalue GAMMA=   1.7460
  3.9523  2.8463  1.7686  1.6312  1.1109  1.1109  0.7740  0.7740

 Free energy of the ion-electron system (eV)
  ---------------------------------------------------
  alpha Z        PSCENC =         7.33280054
  Ewald energy   TEWEN  =     10009.09368963
  -Hartree energ DENC   =    -10665.56378498
  -exchange      EXHF   =         0.00000000
  -V(xc)+E(xc)   XCENC  =       -21.82218701
  PAW double counting   =      2070.11927686    -2006.29811580
  entropy T*S    EENTRO =        -0.00000000
  eigenvalues    EBANDS =      -174.82086441
  atomic energy  EATOM  =       758.24470327
  Solvation  Ediel_sol  =         0.00000000
  ---------------------------------------------------
  free energy    TOTEN  =       -23.71448191 eV

  energy without entropy =      -23.71448191  energy(sigma->0) =      -23.71448191


--------------------------------------------------------------------------------------------------------




--------------------------------------- Iteration      1(  14)  ---------------------------------------


    POTLOK:  cpu time    0.4043: real time    0.4048
    SETDIJ:  cpu time    0.0029: real time    0.0029
     EDDAV:  cpu time    2.2408: real time    2.2420
       DOS:  cpu time    0.0025: real time    0.0025
    CHARGE:  cpu time    0.0945: real time    0.0945
    MIXING:  cpu time    0.0169: real time    0.0168
    --------------------------------------------
      LOOP:  cpu time    2.7619: real time    2.7636

 eigenvalue-minimisations  :  3399
 total energy-change (2. order) :-0.1345099E-03  (-0.1913326E-05)
 number of electron      18.0000001 magnetization 
 augmentation part       -0.9639279 magnetization 

 Broyden mixing:
  rms(total) = 0.14319E-02    rms(broyden)= 0.14319E-02
  rms(prec ) = 0.14890E-02
  weight for this iteration     100.00

 eigenvalues of (default mixing * dielectric matrix)
  average eigenvalue GAMMA=   1.7127
  4.5584  2.6299  2.2076  1.4655  1.0687  1.0687  0.9193  0.7480  0.7480

 Free energy of the ion-electron system (eV)
  ---------------------------------------------------
  alpha Z        PSCENC =         7.33280054
  Ewald energy   TEWEN  =     10009.09368963
  -Hartree energ DENC   =    -10666.57072220
  -exchange      EXHF   =         0.00000000
  -V(xc)+E(xc)   XCENC  =       -21.81711624
  PAW double counting   =      2071.88093722    -2008.05659695
  entropy T*S    EENTRO =        -0.00000000
  eigenvalues    EBANDS =      -173.82231169
  atomic energy  EATOM  =       758.24470327
  Solvation  Ediel_sol  =         0.00000000
  ---------------------------------------------------
  free energy    TOTEN  =       -23.71461641 eV

  energy without entropy =      -23.71461641  energy(sigma->0) =      -23.71461641


--------------------------------------------------------------------------------------------------------




--------------------------------------- Iteration      1(  15)  ---------------------------------------


    POTLOK:  cpu time    0.3986: real time    0.3995
    SETDIJ:  cpu time    0.0073: real time    0.0073
     EDDAV:  cpu time    2.3109: real time    2.3344
       DOS:  cpu time    0.0004: real time    0.0004
    CHARGE:  cpu time    0.0924: real time    0.0937
    MIXING:  cpu time    0.0169: real time    0.0179
    --------------------------------------------
      LOOP:  cpu time    2.8265: real time    2.8532

 eigenvalue-minimisations  :  3555
 total energy-change (2. order) :-0.5322774E-04  (-0.2466478E-06)
 number of electron      18.0000001 magnetization 
 augmentation part       -0.9636818 magnetization 

 Broyden mixing:
  rms(total) = 0.25778E-02    rms(broyden)= 0.25778E-02
  rms(prec ) = 0.25935E-02
  weight for this iteration     100.00

 eigenvalues of (default mixing * dielectric matrix)
  average eigenvalue GAMMA=   1.7571
  5.0881  2.7834  2.1330  1.6614  1.1599  1.1599  1.1006  0.7793  0.7793  0.9260

 Free energy of the ion-electron system (eV)
  ---------------------------------------------------
  alpha Z        PSCENC =         7.33280054
  Ewald energy   TEWEN  =     10009.09368963
  -Hartree energ DENC   =    -10666.73125718
  -exchange      EXHF   =         0.00000000
  -V(xc)+E(xc)   XCENC  =       -21.81540719
  PAW double counting   =      2073.19808552    -2009.37515583
  entropy T*S    EENTRO =        -0.00000000
  eigenvalues    EBANDS =      -173.66212839
  atomic energy  EATOM  =       758.24470327
  Solvation  Ediel_sol  =         0.00000000
  ---------------------------------------------------
  free energy    TOTEN  =       -23.71466964 eV

  energy without entropy =      -23.71466964  energy(sigma->0) =      -23.71466964


--------------------------------------------------------------------------------------------------------




--------------------------------------- Iteration      1(  16)  ---------------------------------------


    POTLOK:  cpu time    0.4100: real time    0.4178
    SETDIJ:  cpu time    0.0020: real time    0.0020
     EDDAV:  cpu time    2.2617: real time    2.2747
       DOS:  cpu time    0.0020: real time    0.0020
    CHARGE:  cpu time    0.0886: real time    0.0945
    MIXING:  cpu time    0.0159: real time    0.0160
    --------------------------------------------
      LOOP:  cpu time    2.7802: real time    2.8071

 eigenvalue-minimisations  :  3381
 total energy-change (2. order) :-0.9477963E-04  (-0.1816650E-06)
 number of electron      18.0000001 magnetization 
 augmentation part       -0.9635773 magnetization 

 Broyden mixing:
  rms(total) = 0.51691E-03    rms(broyden)= 0.51691E-03
  rms(prec ) = 0.54001E-03
  weight for this iteration     100.00

 eigenvalues of (default mixing * dielectric matrix)
  average eigenvalue GAMMA=   1.9042
  6.4981  3.0101  2.4847  2.0758  1.3816  1.0952  1.0952  0.9912  0.7718  0.7714
  0.7714

 Free energy of the ion-electron system (eV)
  ---------------------------------------------------
  alpha Z        PSCENC =         7.33280054
  Ewald energy   TEWEN  =     10009.09368963
  -Hartree energ DENC   =    -10666.94405330
  -exchange      EXHF   =         0.00000000
  -V(xc)+E(xc)   XCENC  =       -21.81487841
  PAW double counting   =      2071.12424623    -2007.30163374
  entropy T*S    EENTRO =        -0.00000000
  eigenvalues    EBANDS =      -173.44963864
  atomic energy  EATOM  =       758.24470327
  Solvation  Ediel_sol  =         0.00000000
  ---------------------------------------------------
  free energy    TOTEN  =       -23.71476442 eV

  energy without entropy =      -23.71476442  energy(sigma->0) =      -23.71476442


--------------------------------------------------------------------------------------------------------




--------------------------------------- Iteration      1(  17)  ---------------------------------------


    POTLOK:  cpu time    0.4024: real time    0.4035
    SETDIJ:  cpu time    0.0091: real time    0.0091
     EDDAV:  cpu time    2.2284: real time    2.2466
       DOS:  cpu time    0.0020: real time    0.0020
    CHARGE:  cpu time    0.0998: real time    0.1020
    MIXING:  cpu time    0.0182: real time    0.0184
    --------------------------------------------
      LOOP:  cpu time    2.7600: real time    2.7816

 eigenvalue-minimisations  :  3432
 total energy-change (2. order) :-0.5100824E-04  (-0.6054635E-07)
 number of electron      18.0000001 magnetization 
 augmentation part       -0.9634841 magnetization 

 Broyden mixing:
  rms(total) = 0.48233E-03    rms(broyden)= 0.48233E-03
  rms(prec ) = 0.49060E-03
  weight for this iteration     100.00

 eigenvalues of (default mixing * dielectric matrix)
  average eigenvalue GAMMA=   1.8557
  6.3278  3.2615  2.4968  2.0095  1.2506  1.2506  1.1603  0.7672  0.7672  0.9312
  1.0229  1.0229

 Free energy of the ion-electron system (eV)
  ---------------------------------------------------
  alpha Z        PSCENC =         7.33280054
  Ewald energy   TEWEN  =     10009.09368963
  -Hartree energ DENC   =    -10667.06310000
  -exchange      EXHF   =         0.00000000
  -V(xc)+E(xc)   XCENC  =       -21.81443892
  PAW double counting   =      2070.46909977    -2006.64705806
  entropy T*S    EENTRO =        -0.00000000
  eigenvalues    EBANDS =      -173.33051165
  atomic energy  EATOM  =       758.24470327
  Solvation  Ediel_sol  =         0.00000000
  ---------------------------------------------------
  free energy    TOTEN  =       -23.71481543 eV

  energy without entropy =      -23.71481543  energy(sigma->0) =      -23.71481543


--------------------------------------------------------------------------------------------------------




--------------------------------------- Iteration      1(  18)  ---------------------------------------


    POTLOK:  cpu time    0.4031: real time    0.4099
    SETDIJ:  cpu time    0.0023: real time    0.0023
     EDDAV:  cpu time    2.3022: real time    2.3220
       DOS:  cpu time    0.0024: real time    0.0024
    CHARGE:  cpu time    0.0940: real time    0.0942
    MIXING:  cpu time    0.0180: real time    0.0182
    --------------------------------------------
      LOOP:  cpu time    2.8220: real time    2.8489

 eigenvalue-minimisations  :  3507
 total energy-change (2. order) :-0.1944226E-04  (-0.9743624E-08)
 number of electron      18.0000001 magnetization 
 augmentation part       -0.9634805 magnetization 

 Broyden mixing:
  rms(total) = 0.48162E-03    rms(broyden)= 0.48162E-03
  rms(prec ) = 0.48679E-03
  weight for this iteration     100.00

 eigenvalues of (default mixing * dielectric matrix)
  average eigenvalue GAMMA=   2.0393
  7.2991  4.1736  2.6719  2.2023  2.2023  1.3147  1.3147  1.0330  1.0330  0.7739
  0.7739  0.8595  0.8595

 Free energy of the ion-electron system (eV)
  ---------------------------------------------------
  alpha Z        PSCENC =         7.33280054
  Ewald energy   TEWEN  =     10009.09368963
  -Hartree energ DENC   =    -10667.07811287
  -exchange      EXHF   =         0.00000000
  -V(xc)+E(xc)   XCENC  =       -21.81451065
  PAW double counting   =      2070.58150818    -2006.75942080
  entropy T*S    EENTRO =        -0.00000000
  eigenvalues    EBANDS =      -173.31549218
  atomic energy  EATOM  =       758.24470327
  Solvation  Ediel_sol  =         0.00000000
  ---------------------------------------------------
  free energy    TOTEN  =       -23.71483487 eV

  energy without entropy =      -23.71483487  energy(sigma->0) =      -23.71483487


--------------------------------------------------------------------------------------------------------




--------------------------------------- Iteration      1(  19)  ---------------------------------------


    POTLOK:  cpu time    0.3873: real time    0.3984
    SETDIJ:  cpu time    0.0032: real time    0.0032
     EDDAV:  cpu time    2.3333: real time    2.3405
       DOS:  cpu time    0.0020: real time    0.0020
    CHARGE:  cpu time    0.0961: real time    0.0963
    MIXING:  cpu time    0.0186: real time    0.0187
    --------------------------------------------
      LOOP:  cpu time    2.8405: real time    2.8591

 eigenvalue-minimisations  :  3303
 total energy-change (2. order) :-0.2988863E-04  (-0.1557675E-07)
 number of electron      18.0000001 magnetization 
 augmentation part       -0.9634863 magnetization 

 Broyden mixing:
  rms(total) = 0.20168E-03    rms(broyden)= 0.20168E-03
  rms(prec ) = 0.20394E-03
  weight for this iteration     100.00

 eigenvalues of (default mixing * dielectric matrix)
  average eigenvalue GAMMA=   1.9979
  7.4665  4.2125  2.5832  2.5832  1.4857  1.4857  1.3209  1.3209  1.0641  1.0641
  0.7696  0.7696  0.9222  0.9222

 Free energy of the ion-electron system (eV)
  ---------------------------------------------------
  alpha Z        PSCENC =         7.33280054
  Ewald energy   TEWEN  =     10009.09368963
  -Hartree energ DENC   =    -10667.13269325
  -exchange      EXHF   =         0.00000000
  -V(xc)+E(xc)   XCENC  =       -21.81445988
  PAW double counting   =      2070.99938589    -2007.17712647
  entropy T*S    EENTRO =        -0.00000000
  eigenvalues    EBANDS =      -173.26116450
  atomic energy  EATOM  =       758.24470327
  Solvation  Ediel_sol  =         0.00000000
  ---------------------------------------------------
  free energy    TOTEN  =       -23.71486476 eV

  energy without entropy =      -23.71486476  energy(sigma->0) =      -23.71486476


--------------------------------------------------------------------------------------------------------




--------------------------------------- Iteration      1(  20)  ---------------------------------------


    POTLOK:  cpu time    0.3882: real time    0.3900
    SETDIJ:  cpu time    0.0123: real time    0.0123
     EDDAV:  cpu time    2.3973: real time    2.4088
       DOS:  cpu time    0.0024: real time    0.0024
    CHARGE:  cpu time    0.0933: real time    0.0936
    MIXING:  cpu time    0.0185: real time    0.0185
    --------------------------------------------
      LOOP:  cpu time    2.9119: real time    2.9255

 eigenvalue-minimisations  :  3636
 total energy-change (2. order) :-0.4801072E-05  (-0.1674049E-08)
 number of electron      18.0000001 magnetization 
 augmentation part       -0.9635044 magnetization 

 Broyden mixing:
  rms(total) = 0.30190E-03    rms(broyden)= 0.30190E-03
  rms(prec ) = 0.30270E-03
  weight for this iteration     100.00

 eigenvalues of (default mixing * dielectric matrix)
  average eigenvalue GAMMA=   2.1668
  8.0011  5.3616  3.1212  2.5075  2.5075  1.5810  1.5810  1.2587  1.1825  1.0384
  1.0384  0.7700  0.7700  0.8917  0.8917

 Free energy of the ion-electron system (eV)
  ---------------------------------------------------
  alpha Z        PSCENC =         7.33280054
  Ewald energy   TEWEN  =     10009.09368963
  -Hartree energ DENC   =    -10667.14219627
  -exchange      EXHF   =         0.00000000
  -V(xc)+E(xc)   XCENC  =       -21.81449713
  PAW double counting   =      2070.90664531    -2007.08431684
  entropy T*S    EENTRO =        -0.00000000
  eigenvalues    EBANDS =      -173.25169806
  atomic energy  EATOM  =       758.24470327
  Solvation  Ediel_sol  =         0.00000000
  ---------------------------------------------------
  free energy    TOTEN  =       -23.71486956 eV

  energy without entropy =      -23.71486956  energy(sigma->0) =      -23.71486956


--------------------------------------------------------------------------------------------------------




--------------------------------------- Iteration      1(  21)  ---------------------------------------


    POTLOK:  cpu time    0.3930: real time    0.3943
    SETDIJ:  cpu time    0.0049: real time    0.0049
     EDDAV:  cpu time    2.3030: real time    2.3107
       DOS:  cpu time    0.0021: real time    0.0021
    CHARGE:  cpu time    0.0994: real time    0.0996
    MIXING:  cpu time    0.0227: real time    0.0228
    --------------------------------------------
      LOOP:  cpu time    2.8250: real time    2.8345

 eigenvalue-minimisations  :  3285
 total energy-change (2. order) :-0.9087100E-05  (-0.4068589E-08)
 number of electron      18.0000001 magnetization 
 augmentation part       -0.9635080 magnetization 

 Broyden mixing:
  rms(total) = 0.15231E-03    rms(broyden)= 0.15231E-03
  rms(prec ) = 0.15255E-03
  weight for this iteration     100.00

 eigenvalues of (default mixing * dielectric matrix)
  average eigenvalue GAMMA=   2.1271
  8.1226  5.7080  3.2281  2.5315  2.4124  1.5553  1.5553  1.4172  1.0209  1.0209
  1.0848  1.0848  0.7705  0.7705  0.8756  0.8756

 Free energy of the ion-electron system (eV)
  ---------------------------------------------------
  alpha Z        PSCENC =         7.33280054
  Ewald energy   TEWEN  =     10009.09368963
  -Hartree energ DENC   =    -10667.15375373
  -exchange      EXHF   =         0.00000000
  -V(xc)+E(xc)   XCENC  =       -21.81448934
  PAW double counting   =      2071.15937487    -2007.33707874
  entropy T*S    EENTRO =        -0.00000000
  eigenvalues    EBANDS =      -173.24012515
  atomic energy  EATOM  =       758.24470327
  Solvation  Ediel_sol  =         0.00000000
  ---------------------------------------------------
  free energy    TOTEN  =       -23.71487865 eV

  energy without entropy =      -23.71487865  energy(sigma->0) =      -23.71487865


--------------------------------------------------------------------------------------------------------




--------------------------------------- Iteration      1(  22)  ---------------------------------------


    POTLOK:  cpu time    0.3860: real time    0.3874
    SETDIJ:  cpu time    0.0116: real time    0.0117
     EDDAV:  cpu time    2.3476: real time    2.3560
       DOS:  cpu time    0.0024: real time    0.0024
    CHARGE:  cpu time    0.0942: real time    0.0945
    MIXING:  cpu time    0.0280: real time    0.0280
    --------------------------------------------
      LOOP:  cpu time    2.8698: real time    2.8800

 eigenvalue-minimisations  :  3441
 total energy-change (2. order) :-0.1249640E-05  (-0.2920889E-09)
 number of electron      18.0000001 magnetization 
 augmentation part       -0.9635150 magnetization 

 Broyden mixing:
  rms(total) = 0.10393E-03    rms(broyden)= 0.10393E-03
  rms(prec ) = 0.10417E-03
  weight for this iteration     100.00

 eigenvalues of (default mixing * dielectric matrix)
  average eigenvalue GAMMA=   2.2630
  8.4422  6.2656  4.0368  3.0599  2.4862  2.2780  1.5379  1.5379  1.3556  1.0367
  1.0367  1.1143  0.7700  0.7700  0.9309  0.9309  0.8813

 Free energy of the ion-electron system (eV)
  ---------------------------------------------------
  alpha Z        PSCENC =         7.33280054
  Ewald energy   TEWEN  =     10009.09368963
  -Hartree energ DENC   =    -10667.15554415
  -exchange      EXHF   =         0.00000000
  -V(xc)+E(xc)   XCENC  =       -21.81450689
  PAW double counting   =      2071.13283769    -2007.31051883
  entropy T*S    EENTRO =        -0.00000000
  eigenvalues    EBANDS =      -173.23834116
  atomic energy  EATOM  =       758.24470327
  Solvation  Ediel_sol  =         0.00000000
  ---------------------------------------------------
  free energy    TOTEN  =       -23.71487990 eV

  energy without entropy =      -23.71487990  energy(sigma->0) =      -23.71487990


--------------------------------------------------------------------------------------------------------




--------------------------------------- Iteration      1(  23)  ---------------------------------------


    POTLOK:  cpu time    0.3848: real time    0.3863
    SETDIJ:  cpu time    0.0170: real time    0.0170
     EDDAV:  cpu time    2.2538: real time    2.2618
       DOS:  cpu time    0.0021: real time    0.0021
    CHARGE:  cpu time    0.0935: real time    0.0938
    MIXING:  cpu time    0.0199: real time    0.0200
    --------------------------------------------
      LOOP:  cpu time    2.7712: real time    2.7811

 eigenvalue-minimisations  :  3219
 total energy-change (2. order) :-0.2285242E-05  (-0.6180044E-09)
 number of electron      18.0000001 magnetization 
 augmentation part       -0.9635097 magnetization 

 Broyden mixing:
  rms(total) = 0.24293E-04    rms(broyden)= 0.24293E-04
  rms(prec ) = 0.24463E-04
  weight for this iteration     100.00

 eigenvalues of (default mixing * dielectric matrix)
  average eigenvalue GAMMA=   2.1992
  8.5447  6.4099  4.1893  3.0128  2.4337  2.4337  1.5662  1.5662  1.3263  1.0053
  1.0053  1.0251  1.0251  0.7703  0.7703  0.9394  0.8742  0.6872

 Free energy of the ion-electron system (eV)
  ---------------------------------------------------
  alpha Z        PSCENC =         7.33280054
  Ewald energy   TEWEN  =     10009.09368963
  -Hartree energ DENC   =    -10667.15909475
  -exchange      EXHF   =         0.00000000
  -V(xc)+E(xc)   XCENC  =       -21.81448847
  PAW double counting   =      2071.04538399    -2007.22308837
  entropy T*S    EENTRO =        -0.00000000
  eigenvalues    EBANDS =      -173.23478802
  atomic energy  EATOM  =       758.24470327
  Solvation  Ediel_sol  =         0.00000000
  ---------------------------------------------------
  free energy    TOTEN  =       -23.71488218 eV

  energy without entropy =      -23.71488218  energy(sigma->0) =      -23.71488218


--------------------------------------------------------------------------------------------------------




--------------------------------------- Iteration      1(  24)  ---------------------------------------


    POTLOK:  cpu time    0.3964: real time    0.3975
    SETDIJ:  cpu time    0.0021: real time    0.0021
     EDDAV:  cpu time    2.3631: real time    2.3634
       DOS:  cpu time    0.0007: real time    0.0007
    CHARGE:  cpu time    0.0935: real time    0.0935
    MIXING:  cpu time    0.0208: real time    0.0208
    --------------------------------------------
      LOOP:  cpu time    2.8767: real time    2.8780

 eigenvalue-minimisations  :  3384
[...]
     23       5.8960      0.00000
     24       5.9240      0.00000
     25       6.2771      0.00000
     26       6.3454      0.00000
     27       6.8090      0.00000
     28       6.8146      0.00000
     29       6.9190      0.00000
     30       7.3984      0.00000
     31       7.5019      0.00000
     32       7.5316      0.00000
     33       7.6155      0.00000
     34       7.6378      0.00000
     35       7.8237      0.00000
     36       7.8798      0.00000
     37       8.1763      0.00000
     38       8.2480      0.00000
     39       8.4572      0.00000
     40       8.5409      0.00000
     41       8.8351      0.00000
     42       8.9149      0.00000
     43       9.3646      0.00000
     44       9.4337      0.00000
     45       9.5804      0.00000
     46       9.8614      0.00000
     47      10.3341      0.00000
     48      10.3384      0.00000
     49      10.6370      0.00000
     50      10.9450      0.00000
     51      11.1885      0.00000
     52      11.2624      0.00000
     53      11.4665      0.00000
     54      11.8648      0.00000
     55      12.1003      0.00000
     56      12.2678      0.00000
     57      12.7250      0.00000
     58      12.8769      0.00000
     59      13.0746      0.00000
     60      13.1456      0.00000

 k-point    22 :       0.1111    0.4444    0.0000
  band No.  band energies     occupation 
      1     -16.8590      2.00000
      2     -16.5748      2.00000
      3     -10.5178      2.00000
      4      -9.5022      2.00000
      5      -8.6064      2.00000
      6      -7.6961      2.00000
      7      -6.4154      2.00000
      8      -6.3571      2.00000
      9      -4.8414      2.00000
     10      -1.5849      0.00000
     11      -0.9211      0.00000
     12      -0.0989      0.00000
     13       0.1604      0.00000
     14       1.1585      0.00000
     15       4.0924      0.00000
     16       4.2700      0.00000
     17       4.8740      0.00000
     18       5.3103      0.00000
     19       5.7770      0.00000
     20       5.9132      0.00000
     21       6.4965      0.00000
     22       6.5520      0.00000
     23       6.5878      0.00000
     24       6.5996      0.00000
     25       6.6369      0.00000
     26       6.7300      0.00000
     27       6.8257      0.00000
     28       6.8618      0.00000
     29       6.9561      0.00000
     30       7.0543      0.00000
     31       7.2142      0.00000
     32       7.3088      0.00000
     33       7.4512      0.00000
     34       7.4973      0.00000
     35       7.7818      0.00000
     36       7.8973      0.00000
     37       8.0728      0.00000
     38       8.1089      0.00000
     39       8.4963      0.00000
     40       8.6181      0.00000
     41       8.8014      0.00000
     42       8.9124      0.00000
     43       9.3548      0.00000
     44       9.4402      0.00000
     45       9.6884      0.00000
     46       9.8306      0.00000
     47      10.2613      0.00000
     48      10.3441      0.00000
     49      10.4847      0.00000
     50      10.7227      0.00000
     51      11.0235      0.00000
     52      11.3100      0.00000
     53      11.3941      0.00000
     54      11.8663      0.00000
     55      11.8966      0.00000
     56      12.1909      0.00000
     57      12.3067      0.00000
     58      12.5722      0.00000
     59      12.8723      0.00000
     60      13.0875      0.00000

 k-point    23 :       0.2222    0.4444    0.0000
  band No.  band energies     occupation 
      1     -16.7772      2.00000
      2     -16.5190      2.00000
      3     -10.0116      2.00000
      4      -9.7206      2.00000
      5      -8.4641      2.00000
      6      -7.6705      2.00000
      7      -7.6352      2.00000
      8      -6.3782      2.00000
      9      -4.6458      2.00000
     10      -1.9637      0.00000
     11      -0.7473      0.00000
     12      -0.7273      0.00000
     13       0.8429      0.00000
     14       2.0484      0.00000
     15       3.7941      0.00000
     16       4.6976      0.00000
     17       5.0218      0.00000
     18       5.7280      0.00000
     19       6.0608      0.00000
     20       6.1342      0.00000
     21       6.2179      0.00000
     22       6.3432      0.00000
     23       6.4945      0.00000
     24       6.5972      0.00000
     25       6.8073      0.00000
     26       7.0093      0.00000
     27       7.1261      0.00000
     28       7.5443      0.00000
     29       7.6077      0.00000
     30       7.9669      0.00000
     31       8.0627      0.00000
     32       8.2539      0.00000
     33       8.3266      0.00000
     34       8.3739      0.00000
     35       8.5127      0.00000
     36       8.5187      0.00000
     37       8.6812      0.00000
     38       8.8117      0.00000
     39       8.9655      0.00000
     40       9.1638      0.00000
     41       9.1665      0.00000
     42       9.4316      0.00000
     43       9.4860      0.00000
     44       9.6342      0.00000
     45       9.7989      0.00000
     46      10.1242      0.00000
     47      10.1256      0.00000
     48      10.3973      0.00000
     49      10.4524      0.00000
     50      10.4764      0.00000
     51      10.5402      0.00000
     52      10.5414      0.00000
     53      10.6966      0.00000
     54      10.7420      0.00000
     55      11.0092      0.00000
     56      11.1165      0.00000
     57      11.2012      0.00000
     58      11.3797      0.00000
     59      11.5502      0.00000
     60      11.5531      0.00000

 k-point    24 :      -0.3333    0.4444    0.0000
  band No.  band energies     occupation 
      1     -17.1536      2.00000
      2     -16.6833      2.00000
      3     -10.2156      2.00000
      4      -9.1682      2.00000
      5      -8.5963      2.00000
      6      -7.6915      2.00000
      7      -6.4828      2.00000
      8      -6.1562      2.00000
      9      -5.0699      2.00000
     10      -1.7677      0.00000
     11      -1.2536      0.00000
     12      -0.5410      0.00000
     13       0.3873      0.00000
     14       2.1121      0.00000
     15       3.4934      0.00000
     16       3.6524      0.00000
     17       4.5422      0.00000
     18       4.6000      0.00000
     19       4.7191      0.00000
     20       4.7514      0.00000
     21       5.0325      0.00000
     22       5.0346      0.00000
     23       5.4387      0.00000
     24       5.4899      0.00000
     25       5.8998      0.00000
     26       6.0408      0.00000
     27       6.1598      0.00000
     28       6.5768      0.00000
     29       6.6376      0.00000
     30       7.1983      0.00000
     31       7.2305      0.00000
     32       7.8805      0.00000
     33       7.9993      0.00000
     34       8.4111      0.00000
     35       8.7288      0.00000
     36       8.9685      0.00000
     37       9.0237      0.00000
     38       9.0557      0.00000
     39       9.1885      0.00000
     40       9.2720      0.00000
     41       9.4709      0.00000
     42       9.4965      0.00000
     43       9.7403      0.00000
     44       9.8730      0.00000
     45      10.1636      0.00000
     46      10.1857      0.00000
     47      10.4934      0.00000
     48      10.5268      0.00000
     49      10.8751      0.00000
     50      11.0207      0.00000
     51      11.2034      0.00000
     52      11.4173      0.00000
     53      11.6296      0.00000
     54      11.9915      0.00000
     55      12.0360      0.00000
     56      12.4160      0.00000
     57      12.6637      0.00000
     58      12.8603      0.00000
     59      13.0290      0.00000
     60      13.2469      0.00000

 k-point    25 :      -0.2222    0.4444    0.0000
  band No.  band energies     occupation 
      1     -17.2142      2.00000
      2     -16.6959      2.00000
      3      -9.8600      2.00000
      4      -9.1020      2.00000
      5      -8.5244      2.00000
      6      -7.8378      2.00000
      7      -7.1547      2.00000
      8      -5.9502      2.00000
      9      -5.0310      2.00000
     10      -1.9545      0.00000
     11      -1.2235      0.00000
     12      -0.9468      0.00000
     13       0.6503      0.00000
     14       2.9417      0.00000
     15       3.5689      0.00000
     16       3.6697      0.00000
     17       4.3605      0.00000
     18       4.4414      0.00000
     19       4.5337      0.00000
     20       4.7258      0.00000
     21       4.7883      0.00000
     22       5.0609      0.00000
     23       5.0817      0.00000
     24       5.3616      0.00000
     25       5.5516      0.00000
     26       5.8972      0.00000
     27       6.1858      0.00000
     28       6.5557      0.00000
     29       6.9276      0.00000
     30       7.1251      0.00000
     31       7.2422      0.00000
     32       7.7344      0.00000
     33       8.0221      0.00000
     34       8.0342      0.00000
     35       8.2792      0.00000
     36       8.8729      0.00000
     37       9.0916      0.00000
     38       9.4677      0.00000
     39       9.9916      0.00000
     40      10.2437      0.00000
     41      10.3823      0.00000
     42      10.8046      0.00000
     43      10.8632      0.00000
     44      10.9342      0.00000
     45      10.9506      0.00000
     46      10.9839      0.00000
     47      11.0681      0.00000
     48      11.1442      0.00000
     49      11.2061      0.00000
     50      11.2134      0.00000
     51      11.3163      0.00000
     52      11.4031      0.00000
     53      11.5652      0.00000
     54      11.5929      0.00000
     55      11.6847      0.00000
     56      11.6879      0.00000
     57      12.0260      0.00000
     58      12.0808      0.00000
     59      12.1504      0.00000
     60      12.2776      0.00000


--------------------------------------------------------------------------------------------------------


 soft charge-density along one line, spin component           1
         0         1         2         3         4         5         6         7         8         9
 total charge-density along one line
 
 pseudopotential strength for first ion, spin component:           1
 -9.081   0.000   0.000  -0.000  -0.000 -10.464   0.000   0.000
  0.000  -9.076  -0.000  -0.000  -0.000   0.000 -10.459  -0.000
  0.000  -0.000  -9.057   0.000  -0.000   0.000  -0.000 -10.436
 -0.000  -0.000   0.000  -9.076  -0.000  -0.000  -0.000   0.000
 -0.000  -0.000  -0.000  -0.000  -9.081  -0.000  -0.000  -0.000
-10.464   0.000   0.000  -0.000  -0.000 -12.043   0.000   0.000
  0.000 -10.459  -0.000  -0.000  -0.000   0.000 -12.036  -0.000
  0.000  -0.000 -10.436   0.000  -0.000   0.000  -0.000 -12.010
 -0.000  -0.000   0.000 -10.459  -0.000  -0.000  -0.000   0.000
 -0.000  -0.000  -0.000  -0.000 -10.464  -0.000  -0.000  -0.000
  0.000   0.000  -0.006  -0.000  -0.000   0.000   0.000  -0.007
  0.000   0.000  -0.010  -0.000  -0.000   0.000   0.000  -0.012
  0.000  -0.000   0.000  -0.000  -0.006   0.000  -0.000   0.000
 -0.000  -0.000  -0.000   0.000  -0.000  -0.000  -0.000  -0.000
 -0.006  -0.000  -0.000  -0.000   0.000  -0.006  -0.000  -0.000
  0.000  -0.000   0.000  -0.000  -0.007   0.000  -0.000   0.000
 -0.000  -0.000  -0.000   0.000  -0.000  -0.000  -0.000  -0.000
 -0.007  -0.000  -0.000  -0.000   0.000  -0.008  -0.000  -0.000
 total augmentation occupancy for first ion, spin component:           1
  7.867   0.000  -0.000   0.000   0.000  -4.777   0.000   0.000   0.000  -0.000  -0.000   0.000   0.000   0.000  -0.447   0.000
  0.000  11.034   0.000  -0.000   0.000   0.000  -7.141   0.000   0.000   0.000   0.000   0.000   0.000  -0.000   0.000   0.000
 -0.000   0.000   6.285   0.000   0.000   0.000   0.000  -3.535   0.000  -0.000   0.354  -0.074  -0.000  -0.000   0.000   0.000
  0.000  -0.000   0.000  11.034   0.000   0.000   0.000   0.000  -7.141   0.000   0.000   0.000   0.000   0.000   0.000   0.000
  0.000   0.000   0.000   0.000   7.867  -0.000  -0.000  -0.000   0.000  -4.777   0.000  -0.000  -0.447   0.000   0.000   0.030
 -4.777   0.000   0.000   0.000  -0.000   3.046   0.000  -0.000   0.000   0.000   0.000  -0.000  -0.000   0.000   0.338  -0.000
  0.000  -7.141   0.000   0.000   0.000   0.000   4.718   0.000  -0.000   0.000   0.000   0.000  -0.000   0.000   0.000   0.000
  0.000   0.000  -3.535   0.000  -0.000  -0.000   0.000   2.137   0.000   0.000  -0.200   0.049   0.000   0.000  -0.000  -0.000
  0.000   0.000   0.000  -7.141   0.000  -0.000  -0.000   0.000   4.718   0.000   0.000   0.000   0.000  -0.000  -0.000   0.000
 -0.000   0.000  -0.000   0.000  -4.777   0.000   0.000   0.000   0.000   3.046  -0.000   0.000   0.338   0.000  -0.000  -0.025
 -0.000   0.000   0.354   0.000   0.000   0.000   0.000  -0.200   0.000  -0.000   2.259  -0.374  -0.000   0.000   0.000   0.000
  0.000   0.000  -0.074   0.000  -0.000  -0.000   0.000   0.049   0.000   0.000  -0.374   0.076   0.000   0.000  -0.000  -0.000
  0.000   0.000  -0.000   0.000  -0.447  -0.000   0.000   0.000   0.000   0.338  -0.000   0.000   0.334   0.000  -0.000  -0.023
  0.000  -0.000  -0.000   0.000   0.000   0.000   0.000   0.000  -0.000   0.000   0.000   0.000   0.000   0.391   0.000   0.000
 -0.447   0.000   0.000  -0.000   0.000   0.338   0.000  -0.000  -0.000  -0.000   0.000  -0.000  -0.000   0.000   0.334   0.000
  0.000  -0.000   0.000   0.000   0.030  -0.000   0.000  -0.000   0.000  -0.025   0.000  -0.000  -0.023   0.000   0.000   0.002
  0.000   0.000   0.000  -0.000   0.000   0.000  -0.000   0.000   0.000   0.000   0.000   0.000   0.000  -0.026   0.000   0.000
  0.030   0.000  -0.000   0.000   0.000  -0.025   0.000   0.000   0.000  -0.000  -0.000   0.000   0.000   0.000  -0.023  -0.000


------------------------ aborting loop because EDIFF is reached ----------------------------------------


 


 total charge     
 
# of ion       s       p       d       tot
------------------------------------------
    1        0.560   0.698   4.220   5.478
    2        1.359   2.356   0.000   3.714
    3        1.359   2.356   0.000   3.714
--------------------------------------------------
tot          3.277   5.409   4.220  12.907
 
    CHARGE:  cpu time    0.1102: real time    0.1102
    FORLOC:  cpu time    0.0178: real time    0.0178
    FORNL :  cpu time    0.1224: real time    0.1224
    STRESS:  cpu time    1.0000: real time    1.0006
    FORCOR:  cpu time    0.3867: real time    0.3868
    FORHAR:  cpu time    0.0927: real time    0.0929
    MIXING:  cpu time    0.0272: real time    0.0272
    OFIELD:  cpu time    0.0000: real time    0.0000

  FORCE on cell =-STRESS in cart. coord.  units (eV):
  Direction    XX          YY          ZZ          XY          YZ          ZX
  --------------------------------------------------------------------------------------
  Alpha Z     7.33280     7.33280     7.33280
  Ewald   10575.84177 10575.84174-11142.58978    -0.00002     0.00000     0.00000
  Hartree 10630.59052 10630.59052-10594.02005    -0.00000    -0.00000     0.00000
  E(xc)     -69.19571   -69.19571   -69.83906     0.00000    -0.00000    -0.00000
  Local  -21486.65661-21486.65656 21451.13995     0.00002    -0.00000    -0.00000
  n-local   131.23279   132.54592   136.89222    -0.37909     0.00000     0.00000
  augment   -29.35785   -29.35788   -30.25413     0.00000     0.00000     0.00000
  Kinetic   235.24130   243.35400   241.31627    -2.34193    -0.00000    -0.00000
  Fock        0.00000     0.00000     0.00000     0.00000     0.00000     0.00000
  -------------------------------------------------------------------------------------
  Total      -0.25808    -0.25808    -0.02178    -0.00000     0.00000     0.00000
  in kB      -0.98056    -0.98056    -0.08273    -0.00001     0.00000     0.00000
  external pressure =       -0.68 kB  Pullay stress =        0.00 kB


 VOLUME and BASIS-vectors are now :
 -----------------------------------------------------------------------------
  energy-cutoff  :      400.00
  volume of cell :      421.69
      direct lattice vectors                 reciprocal lattice vectors
     1.595000000 -2.762621038  0.000000000     0.313479624 -0.180987545  0.000000000
     1.595000000  2.762621038  0.000000000     0.313479624  0.180987545  0.000000000
     0.000000000  0.000000000 47.850000000     0.000000000  0.000000000  0.020898642

  length of vectors
     3.190000000  3.190000000 47.850000000     0.361975090  0.361975090  0.020898642


 FORCES acting on ions
    electron-ion (+dipol)            ewald-force                    non-local-force                 convergence-correction
 -----------------------------------------------------------------------------------------------
   0.872E-05 -.512E-05 0.310E-05   -.925E-05 0.534E-05 0.227E-12   -.281E-05 0.162E-05 0.000E+00   -.214E-08 0.124E-08 -.982E-09
   -.469E-05 0.278E-05 0.636E+03   0.462E-05 -.267E-05 -.641E+03   0.183E-05 -.106E-05 0.469E+01   0.312E-08 -.180E-08 -.782E-05
   -.489E-05 0.276E-05 -.636E+03   0.462E-05 -.267E-05 0.641E+03   0.183E-05 -.106E-05 -.469E+01   0.312E-08 -.180E-08 0.781E-05
 -----------------------------------------------------------------------------------------------
   -.861E-06 0.420E-06 0.148E-04   0.127E-13 -.786E-14 0.000E+00   0.858E-06 -.495E-06 0.000E+00   0.410E-08 -.236E-08 -.269E-08
 
 
 POSITION                                       TOTAL-FORCE (eV/Angst)
 -----------------------------------------------------------------------------------
      0.00000      0.00000      1.56469        -0.000003      0.000002      0.000000
      1.59500     -0.92087     47.84773         0.000002     -0.000001      0.000232
      1.59500     -0.92087      3.13166         0.000002     -0.000001     -0.000232
 -----------------------------------------------------------------------------------
    total drift:                                0.000000     -0.000000      0.000015


--------------------------------------------------------------------------------------------------------



  FREE ENERGIE OF THE ION-ELECTRON SYSTEM (eV)
  ---------------------------------------------------
  free  energy   TOTEN  =       -23.71488312 eV

  energy  without entropy=      -23.71488312  energy(sigma->0) =      -23.71488312
 


--------------------------------------------------------------------------------------------------------


    POTLOK:  cpu time    0.4114: real time    0.4125


--------------------------------------------------------------------------------------------------------


 writing wavefunctions
     LOOP+:  cpu time  198.5258: real time  383.3091
    4ORBIT:  cpu time    0.0000: real time    0.0000
 


 total charge     
 
# of ion       s       p       d       tot
------------------------------------------
    1        0.560   0.698   4.220   5.478
    2        1.359   2.356   0.000   3.714
    3        1.359   2.356   0.000   3.714
--------------------------------------------------
tot          3.277   5.409   4.220  12.907
 

 total amount of memory used by VASP MPI-rank0   200213. kBytes
=======================================================================

   base      :      30000. kBytes
   nonl-proj :      55925. kBytes
   fftplans  :      17258. kBytes
   grid      :      34968. kBytes
   one-center:         46. kBytes
   wavefun   :      62016. kBytes
 
  
  
 General timing and accounting informations for this job:
 ========================================================
  
                  Total CPU time used (sec):      202.138
                            User time (sec):      196.717
                          System time (sec):        5.421
                         Elapsed time (sec):      388.317
  
                   Maximum memory used (kb):      296320.
                   Average memory used (kb):           0.
  
                          Minor page faults:       221779
                          Major page faults:            0
                 Voluntary context switches:        57200
