 written on  9Mar2019 at 05:32:51 
          11
          83
    2    1    1    2    1    1    1    1    1    1    1    1    1    1    1
    1    1    1    1    1    1    1    1    1    1    1    1    1    1    1
    1    1    1    1    1    1    1    1    1    1    1    1    1    1    1
    1    1    1    1    1    1    1    1    1    1    1    1    1    1    1
    1    1    1    1    1    1    1    1    1    1    1    1    1    1    1
    1    1    1    1    2    1    1    2
   -5   -4    0    1    1   -0.000179   -0.000000
   -5   -4    0    2    1   -0.000000    0.000000
   -5   -4    0    3    1    0.000000    0.000000
   -5   -4    0    4    1   -0.000137    0.000000
   -5   -4    0    5    1    0.000000    0.000000
   -5   -4    0    6    1    0.000809    0.000000
   -5   -4    0    7    1    0.000643    0.000000
   -5   -4    0    8    1    0.000165   -0.000000
   -5   -4    0    9    1   -0.000809   -0.000000
   -5   -4    0   10    1    0.000643    0.000000
   -5   -4    0   11    1    0.000165   -0.000000
   -5   -4    0    1    2    0.000000    0.000000
   -5   -4    0    2    2   -0.000367    0.000000
   -5   -4    0    3    2    0.000000    0.000000
   -5   -4    0    4    2   -0.000000    0.000000
   -5   -4    0    5    2   -0.000000    0.000000
   -5   -4    0    6    2    0.000248    0.000000
   -5   -4    0    7    2    0.000898   -0.000000
   -5   -4    0    8    2    0.000387    0.000000
   -5   -4    0    9    2    0.000248   -0.000000
   -5   -4    0   10    2   -0.000898    0.000000
   -5   -4    0   11    2   -0.000387   -0.000000
   -5   -4    0    1    3    0.000000    0.000000
   -5   -4    0    2    3    0.000000    0.000000
   -5   -4    0    3    3    0.000130   -0.000000
   -5   -4    0    4    3    0.000000    0.000000
   -5   -4    0    5    3   -0.000000    0.000000
   -5   -4    0    6    3    0.000118    0.000000
   -5   -4    0    7    3    0.000335   -0.000000
   -5   -4    0    8    3    0.000226    0.000000
   -5   -4    0    9    3    0.000118   -0.000000
   -5   -4    0   10    3   -0.000335    0.000000
   -5   -4    0   11    3   -0.000226   -0.000000
   -5   -4    0    1    4    0.000888    0.000000
   -5   -4    0    2    4   -0.000000   -0.000000
   -5   -4    0    3    4   -0.000000   -0.000000
   -5   -4    0    4    4   -0.000988   -0.000000
   -5   -4    0    5    4   -0.000000    0.000000
   -5   -4    0    6    4   -0.000966   -0.000000
   -5   -4    0    7    4   -0.000697   -0.000000
   -5   -4    0    8    4   -0.000176   -0.000000
   -5   -4    0    9    4    0.000966    0.000000
   -5   -4    0   10    4   -0.000697    0.000000
   -5   -4    0   11    4   -0.000176    0.000000
   -5   -4    0    1    5    0.000000    0.000000
   -5   -4    0    2    5   -0.000000    0.000000
   -5   -4    0    3    5   -0.000000   -0.000000
   -5   -4    0    4    5   -0.000000    0.000000
   -5   -4    0    5    5    0.000641    0.000000
   -5   -4    0    6    5    0.000621   -0.000000
   -5   -4    0    7    5    0.000290    0.000000
   -5   -4    0    8    5    0.000048    0.000000
   -5   -4    0    9    5   -0.000621    0.000000
   -5   -4    0   10    5    0.000290    0.000000
   -5   -4    0   11    5    0.000048    0.000000
   -5   -4    0    1    6    0.000003   -0.000000
   -5   -4    0    2    6    0.000222    0.000000
   -5   -4    0    3    6    0.000045    0.000000
   -5   -4    0    4    6   -0.000138   -0.000000
   -5   -4    0    5    6    0.000119   -0.000000
   -5   -4    0    6    6    0.000412   -0.000000
   -5   -4    0    7    6    0.000000   -0.000000
   -5   -4    0    8    6    0.000166    0.000000
   -5   -4    0    9    6   -0.000244   -0.000000
   -5   -4    0   10    6   -0.000000   -0.000000
   -5   -4    0   11    6    0.000066    0.000000
   -5   -4    0    1    7    0.000048   -0.000000
   -5   -4    0    2    7    0.001000    0.000000
   -5   -4    0    3    7    0.000213   -0.000000
   -5   -4    0    4    7   -0.000610    0.000000
   -5   -4    0    5    7   -0.000527    0.000000
   -5   -4    0    6    7    0.000000    0.000000
   -5   -4    0    7    7   -0.000270    0.000000
   -5   -4    0    8    7    0.000000    0.000000
   -5   -4    0    9    7   -0.000000   -0.000000
   -5   -4    0   10    7    0.001026   -0.000000
   -5   -4    0   11    7    0.000000   -0.000000
   -5   -4    0    1    8    0.000026    0.000000
   -5   -4    0    2    8    0.000493    0.000000
   -5   -4    0    3    8    0.000352   -0.000000
   -5   -4    0    4    8   -0.000069   -0.000000
   -5   -4    0    5    8    0.000471    0.000000
   -5   -4    0    6    8    0.000462    0.000000
   -5   -4    0    7    8   -0.000000    0.000000
   -5   -4    0    8    8    0.000188   -0.000000
   -5   -4    0    9    8   -0.000285    0.000000
   -5   -4    0   10    8    0.000000   -0.000000
   -5   -4    0   11    8   -0.000108    0.000000
   -5   -4    0    1    9   -0.000003    0.000000
   -5   -4    0    2    9    0.000222   -0.000000
   -5   -4    0    3    9    0.000045   -0.000000
   -5   -4    0    4    9    0.000138    0.000000
   -5   -4    0    5    9   -0.000119    0.000000
   -5   -4    0    6    9   -0.000244    0.000000
   -5   -4    0    7    9    0.000000    0.000000
   -5   -4    0    8    9   -0.000066   -0.000000
   -5   -4    0    9    9    0.000412   -0.000000
   -5   -4    0   10    9   -0.000000    0.000000
   -5   -4    0   11    9   -0.000166   -0.000000
   -5   -4    0    1   10    0.000048   -0.000000
   -5   -4    0    2   10   -0.001000   -0.000000
   -5   -4    0    3   10   -0.000213    0.000000
   -5   -4    0    4   10   -0.000610    0.000000
   -5   -4    0    5   10   -0.000527   -0.000000
   -5   -4    0    6   10    0.000000    0.000000
   -5   -4    0    7   10    0.001026   -0.000000
   -5   -4    0    8   10    0.000000   -0.000000
   -5   -4    0    9   10   -0.000000   -0.000000
   -5   -4    0   10   10   -0.000270    0.000000
   -5   -4    0   11   10    0.000000    0.000000
   -5   -4    0    1   11    0.000026    0.000000
   -5   -4    0    2   11   -0.000493   -0.000000
   -5   -4    0    3   11   -0.000352    0.000000
   -5   -4    0    4   11   -0.000069   -0.000000
   -5   -4    0    5   11    0.000471    0.000000
   -5   -4    0    6   11    0.000285   -0.000000
   -5   -4    0    7   11    0.000000   -0.000000
   -5   -4    0    8   11   -0.000108    0.000000
   -5   -4    0    9   11   -0.000462   -0.000000
   -5   -4    0   10   11   -0.000000    0.000000
   -5   -4    0   11   11    0.000188   -0.000000
   -5   -3    0    1    1   -0.000692   -0.000000
   -5   -3    0    2    1    0.000000    0.000000
   -5   -3    0    3    1   -0.000000   -0.000000
   -5   -3    0    4    1    0.000080    0.000000
   -5   -3    0    5    1   -0.001879    0.000000
   -5   -3    0    6    1   -0.000927    0.000000
   -5   -3    0    7    1   -0.000000   -0.000000
   -5   -3    0    8    1   -0.000283   -0.000000
   -5   -3    0    9    1    0.000927    0.000000
   -5   -3    0   10    1   -0.000000   -0.000000
   -5   -3    0   11    1   -0.000283    0.000000
   -5   -3    0    1    2   -0.000000   -0.000000
   -5   -3    0    2    2    0.000497    0.000000
   -5   -3    0    3    2   -0.000038    0.000000
   -5   -3    0    4    2   -0.000000   -0.000000
   -5   -3    0    5    2   -0.000000    0.000000
   -5   -3    0    6    2    0.000000   -0.000000
   -5   -3    0    7    2   -0.000483    0.000000
   -5   -3    0    8    2   -0.000000    0.000000
   -5   -3    0    9    2    0.000000   -0.000000
   -5   -3    0   10    2    0.000483   -0.000000
   -5   -3    0   11    2    0.000000   -0.000000
   -5   -3    0    1    3   -0.000000   -0.000000
   -5   -3    0    2    3    0.000058    0.000000
   -5   -3    0    3    3   -0.000077   -0.000000
   -5   -3    0    4    3   -0.000000   -0.000000
   -5   -3    0    5    3    0.000000   -0.000000
   -5   -3    0    6    3   -0.000112    0.000000
   -5   -3    0    7    3    0.000000   -0.000000
   -5   -3    0    8    3    0.000188   -0.000000
   -5   -3    0    9    3   -0.000112    0.000000
   -5   -3    0   10    3   -0.000000    0.000000
   -5   -3    0   11    3   -0.000188   -0.000000
   -5   -3    0    1    4   -0.000122    0.000000
   -5   -3    0    2    4   -0.000000    0.000000
   -5   -3    0    3    4    0.000000    0.000000
   -5   -3    0    4    4   -0.000564    0.000000
   -5   -3    0    5    4    0.001377    0.000000
   -5   -3    0    6    4    0.001224    0.000000
   -5   -3    0    7    4    0.000000    0.000000
   -5   -3    0    8    4    0.000124   -0.000000
   -5   -3    0    9    4   -0.001224    0.000000
   -5   -3    0   10    4    0.000000    0.000000
   -5   -3    0   11    4    0.000124   -0.000000
   -5   -3    0    1    5   -0.000562   -0.000000
   -5   -3    0    2    5    0.000000   -0.000000
   -5   -3    0    3    5    0.000000    0.000000
   -5   -3    0    4    5   -0.000266    0.000000
   -5   -3    0    5    5   -0.000605   -0.000000
   -5   -3    0    6    5    0.000000   -0.000000
   -5   -3    0    7    5    0.000052    0.000000
   -5   -3    0    8    5   -0.000000    0.000000
   -5   -3    0    9    5   -0.000000    0.000000
   -5   -3    0   10    5    0.000052   -0.000000
   -5   -3    0   11    5   -0.000000    0.000000
   -5   -3    0    1    6   -0.000696   -0.000000
   -5   -3    0    2    6    0.000039    0.000000
   -5   -3    0    3    6   -0.000058    0.000000
   -5   -3    0    4    6    0.000698   -0.000000
   -5   -3    0    5    6   -0.001017   -0.000000
   -5   -3    0    6    6   -0.000405    0.000000
   -5   -3    0    7    6    0.000078    0.000000
   -5   -3    0    8    6   -0.000170   -0.000000
   -5   -3    0    9    6    0.000467    0.000000
   -5   -3    0   10    6    0.000183    0.000000
   -5   -3    0   11    6   -0.000103   -0.000000
   -5   -3    0    1    7   -0.000781   -0.000000
   -5   -3    0    2    7   -0.000537   -0.000000
   -5   -3    0    3    7    0.000164    0.000000
   -5   -3    0    4    7    0.000680    0.000000
   -5   -3    0    5    7   -0.001455    0.000000
   -5   -3    0    6    7   -0.000663   -0.000000
   -5   -3    0    7    7    0.000832   -0.000000
   -5   -3    0    8    7   -0.000227   -0.000000
   -5   -3    0    9    7    0.000686    0.000000
   -5   -3    0   10    7   -0.000338    0.000000
   -5   -3    0   11    7   -0.000182    0.000000
   -5   -3    0    1    8    0.000633   -0.000000
   -5   -3    0    2    8   -0.000480    0.000000
   -5   -3    0    3    8   -0.000058    0.000000
   -5   -3    0    4    8   -0.000160   -0.000000
   -5   -3    0    5    8    0.000505    0.000000
   -5   -3    0    6    8    0.000079   -0.000000
   -5   -3    0    7    8   -0.000051   -0.000000
   -5   -3    0    8    8   -0.000117    0.000000
   -5   -3    0    9    8   -0.000099   -0.000000
   -5   -3    0   10    8   -0.000337    0.000000
   -5   -3    0   11    8    0.000222   -0.000000
   -5   -3    0    1    9    0.000696   -0.000000
   -5   -3    0    2    9    0.000039    0.000000
   -5   -3    0    3    9   -0.000058   -0.000000
   -5   -3    0    4    9   -0.000698    0.000000
   -5   -3    0    5    9    0.001017    0.000000
   -5   -3    0    6    9    0.000467   -0.000000
   -5   -3    0    7    9   -0.000183   -0.000000
   -5   -3    0    8    9    0.000103    0.000000
   -5   -3    0    9    9   -0.000405   -0.000000
   -5   -3    0   10    9   -0.000078   -0.000000
   -5   -3    0   11    9    0.000170    0.000000
   -5   -3    0    1   10   -0.000781    0.000000
   -5   -3    0    2   10    0.000537    0.000000
   -5   -3    0    3   10   -0.000164    0.000000
   -5   -3    0    4   10    0.000680    0.000000
   -5   -3    0    5   10   -0.001455    0.000000
   -5   -3    0    6   10   -0.000686   -0.000000
   -5   -3    0    7   10   -0.000338    0.000000
   -5   -3    0    8   10   -0.000182    0.000000
   -5   -3    0    9   10    0.000663    0.000000
   -5   -3    0   10   10    0.000832   -0.000000
   -5   -3    0   11   10   -0.000227   -0.000000
   -5   -3    0    1   11    0.000633   -0.000000
   -5   -3    0    2   11    0.000480   -0.000000
   -5   -3    0    3   11    0.000058   -0.000000
   -5   -3    0    4   11   -0.000160    0.000000
   -5   -3    0    5   11    0.000505    0.000000
   -5   -3    0    6   11    0.000099   -0.000000
   -5   -3    0    7   11   -0.000337    0.000000
   -5   -3    0    8   11    0.000222   -0.000000
   -5   -3    0    9   11   -0.000079    0.000000
   -5   -3    0   10   11   -0.000051   -0.000000
   -5   -3    0   11   11   -0.000117    0.000000
   -5   -2    0    1    1   -0.000785    0.000000
   -5   -2    0    2    1    0.000000    0.000000
   -5   -2    0    3    1   -0.000000    0.000000
   -5   -2    0    4    1    0.001485   -0.000000
   -5   -2    0    5    1   -0.000912    0.000000
   -5   -2    0    6    1   -0.000851    0.000000
   -5   -2    0    7    1    0.000215    0.000000
   -5   -2    0    8    1    0.000091    0.000000
   -5   -2    0    9    1    0.000851    0.000000
   -5   -2    0   10    1    0.000215   -0.000000
   -5   -2    0   11    1    0.000091    0.000000
   -5   -2    0    1    2   -0.000000    0.000000
   -5   -2    0    2    2    0.000055   -0.000000
   -5   -2    0    3    2   -0.000194   -0.000000
   -5   -2    0    4    2    0.000000   -0.000000
   -5   -2    0    5    2   -0.000000    0.000000
   -5   -2    0    6    2    0.000084   -0.000000
   -5   -2    0    7    2    0.000016    0.000000
   -5   -2    0    8    2    0.000297   -0.000000
   -5   -2    0    9    2    0.000084   -0.000000
   -5   -2    0   10    2   -0.000016   -0.000000
   -5   -2    0   11    2   -0.000297    0.000000
   -5   -2    0    1    3    0.000000    0.000000
   -5   -2    0    2    3   -0.000289   -0.000000
   -5   -2    0    3    3    0.000364    0.000000
   -5   -2    0    4    3   -0.000000   -0.000000
   -5   -2    0    5    3   -0.000000   -0.000000
   -5   -2    0    6    3    0.000056   -0.000000
   -5   -2    0    7    3    0.000294   -0.000000
   -5   -2    0    8    3   -0.000318   -0.000000
   -5   -2    0    9    3    0.000056    0.000000
   -5   -2    0   10    3   -0.000294   -0.000000
   -5   -2    0   11    3    0.000318    0.000000
   -5   -2    0    1    4    0.000509    0.000000
   -5   -2    0    2    4    0.000000    0.000000
   -5   -2    0    3    4    0.000000    0.000000
   -5   -2    0    4    4    0.000071   -0.000000
   -5   -2    0    5    4   -0.000538    0.000000
   -5   -2    0    6    4   -0.000709    0.000000
   -5   -2    0    7    4    0.000027   -0.000000
   -5   -2    0    8    4    0.000039    0.000000
   -5   -2    0    9    4    0.000709   -0.000000
   -5   -2    0   10    4    0.000027   -0.000000
   -5   -2    0   11    4    0.000039   -0.000000
   -5   -2    0    1    5   -0.000272   -0.000000
   -5   -2    0    2    5    0.000000   -0.000000
   -5   -2    0    3    5   -0.000000    0.000000
   -5   -2    0    4    5    0.001126   -0.000000
   -5   -2    0    5    5   -0.001144   -0.000000
   -5   -2    0    6    5   -0.001114   -0.000000
   -5   -2    0    7    5    0.000083   -0.000000
   -5   -2    0    8    5   -0.000019   -0.000000
   -5   -2    0    9    5    0.001114   -0.000000
   -5   -2    0   10    5    0.000083   -0.000000
   -5   -2    0   11    5   -0.000019   -0.000000
   -5   -2    0    1    6   -0.000675   -0.000000
   -5   -2    0    2    6    0.000046    0.000000
   -5   -2    0    3    6    0.000023   -0.000000
   -5   -2    0    4    6    0.000491    0.000000
   -5   -2    0    5    6   -0.001139   -0.000000
   -5   -2    0    6    6   -0.000428   -0.000000
   -5   -2    0    7    6    0.000198    0.000000
   -5   -2    0    8    6   -0.000008    0.000000
   -5   -2    0    9    6    0.000477    0.000000
   -5   -2    0   10    6    0.000149    0.000000
   -5   -2    0   11    6   -0.000097    0.000000
   -5   -2    0    1    7   -0.000949    0.000000
   -5   -2    0    2    7   -0.000024   -0.000000
   -5   -2    0    3    7   -0.000208    0.000000
   -5   -2    0    4    7    0.000723   -0.000000
   -5   -2    0    5    7   -0.001040   -0.000000
   -5   -2    0    6    7   -0.000400   -0.000000
   -5   -2    0    7    7    0.000234    0.000000
   -5   -2    0    8    7   -0.000409    0.000000
   -5   -2    0    9    7    0.000451    0.000000
   -5   -2    0   10    7    0.000301   -0.000000
   -5   -2    0   11    7    0.000014   -0.000000
   -5   -2    0    1    8    0.000313    0.000000
   -5   -2    0    2    8    0.000446   -0.000000
   -5   -2    0    3    8   -0.000549    0.000000
   -5   -2    0    4    8   -0.000543    0.000000
   -5   -2    0    5    8    0.000884   -0.000000
   -5   -2    0    6    8    0.000497    0.000000
   -5   -2    0    7    8   -0.000542    0.000000
   -5   -2    0    8    8    0.000503   -0.000000
   -5   -2    0    9    8   -0.000521   -0.000000
   -5   -2    0   10    8    0.000208   -0.000000
   -5   -2    0   11    8   -0.000409    0.000000
   -5   -2    0    1    9    0.000675   -0.000000
   -5   -2    0    2    9    0.000046    0.000000
   -5   -2    0    3    9    0.000023   -0.000000
   -5   -2    0    4    9   -0.000491   -0.000000
   -5   -2    0    5    9    0.001139   -0.000000
   -5   -2    0    6    9    0.000477   -0.000000
   -5   -2    0    7    9   -0.000149   -0.000000
   -5   -2    0    8    9    0.000097    0.000000
   -5   -2    0    9    9   -0.000428   -0.000000
   -5   -2    0   10    9   -0.000198   -0.000000
   -5   -2    0   11    9    0.000008   -0.000000
   -5   -2    0    1   10   -0.000949    0.000000
   -5   -2    0    2   10    0.000024    0.000000
   -5   -2    0    3   10    0.000208   -0.000000
   -5   -2    0    4   10    0.000723   -0.000000
   -5   -2    0    5   10   -0.001040    0.000000
   -5   -2    0    6   10   -0.000451    0.000000
   -5   -2    0    7   10    0.000301   -0.000000
   -5   -2    0    8   10    0.000014   -0.000000
   -5   -2    0    9   10    0.000400    0.000000
   -5   -2    0   10   10    0.000234    0.000000
   -5   -2    0   11   10   -0.000409    0.000000
   -5   -2    0    1   11    0.000313    0.000000
   -5   -2    0    2   11   -0.000446    0.000000
   -5   -2    0    3   11    0.000549    0.000000
   -5   -2    0    4   11   -0.000543    0.000000
   -5   -2    0    5   11    0.000884   -0.000000
   -5   -2    0    6   11    0.000521    0.000000
   -5   -2    0    7   11    0.000208   -0.000000
   -5   -2    0    8   11   -0.000409    0.000000
   -5   -2    0    9   11   -0.000497   -0.000000
   -5   -2    0   10   11   -0.000542    0.000000
   -5   -2    0   11   11    0.000503   -0.000000
   -4   -5    0    1    1   -0.000179    0.000000
   -4   -5    0    2    1    0.000000   -0.000000
   -4   -5    0    3    1    0.000000   -0.000000
   -4   -5    0    4    1    0.000888   -0.000000
   -4   -5    0    5    1    0.000000   -0.000000
   -4   -5    0    6    1    0.000003    0.000000
   -4   -5    0    7    1    0.000048    0.000000
   -4   -5    0    8    1    0.000026   -0.000000
   -4   -5    0    9    1   -0.000003   -0.000000
   -4   -5    0   10    1    0.000048    0.000000
   -4   -5    0   11    1    0.000026   -0.000000
   -4   -5    0    1    2   -0.000000   -0.000000
   -4   -5    0    2    2   -0.000367   -0.000000
   -4   -5    0    3    2    0.000000   -0.000000
   -4   -5    0    4    2   -0.000000    0.000000
   -4   -5    0    5    2   -0.000000   -0.000000
   -4   -5    0    6    2    0.000222   -0.000000
   -4   -5    0    7    2    0.001000   -0.000000
   -4   -5    0    8    2    0.000493   -0.000000
   -4   -5    0    9    2    0.000222    0.000000
   -4   -5    0   10    2   -0.001000    0.000000
   -4   -5    0   11    2   -0.000493    0.000000
   -4   -5    0    1    3    0.000000   -0.000000
   -4   -5    0    2    3    0.000000   -0.000000
   -4   -5    0    3    3    0.000130    0.000000
   -4   -5    0    4    3   -0.000000    0.000000
   -4   -5    0    5    3   -0.000000    0.000000
   -4   -5    0    6    3    0.000045   -0.000000
   -4   -5    0    7    3    0.000213    0.000000
   -4   -5    0    8    3    0.000352    0.000000
   -4   -5    0    9    3    0.000045    0.000000
   -4   -5    0   10    3   -0.000213   -0.000000
   -4   -5    0   11    3   -0.000352   -0.000000
   -4   -5    0    1    4   -0.000137   -0.000000
   -4   -5    0    2    4   -0.000000   -0.000000
   -4   -5    0    3    4    0.000000   -0.000000
   -4   -5    0    4    4   -0.000988    0.000000
   -4   -5    0    5    4   -0.000000   -0.000000
   -4   -5    0    6    4   -0.000138    0.000000
   -4   -5    0    7    4   -0.000610   -0.000000
   -4   -5    0    8    4   -0.000069    0.000000
   -4   -5    0    9    4    0.000138   -0.000000
   -4   -5    0   10    4   -0.000610   -0.000000
   -4   -5    0   11    4   -0.000069    0.000000
   -4   -5    0    1    5    0.000000   -0.000000
   -4   -5    0    2    5   -0.000000   -0.000000
   -4   -5    0    3    5   -0.000000   -0.000000
   -4   -5    0    4    5   -0.000000   -0.000000
   -4   -5    0    5    5    0.000641   -0.000000
   -4   -5    0    6    5    0.000119    0.000000
   -4   -5    0    7    5   -0.000527   -0.000000
   -4   -5    0    8    5    0.000471   -0.000000
   -4   -5    0    9    5   -0.000119   -0.000000
   -4   -5    0   10    5   -0.000527    0.000000
   -4   -5    0   11    5    0.000471   -0.000000
   -4   -5    0    1    6    0.000809   -0.000000
   -4   -5    0    2    6    0.000248   -0.000000
   -4   -5    0    3    6    0.000118   -0.000000
   -4   -5    0    4    6   -0.000966    0.000000
   -4   -5    0    5    6    0.000621    0.000000
   -4   -5    0    6    6    0.000412    0.000000
   -4   -5    0    7    6    0.000000   -0.000000
   -4   -5    0    8    6    0.000462   -0.000000
   -4   -5    0    9    6   -0.000244   -0.000000
   -4   -5    0   10    6    0.000000   -0.000000
   -4   -5    0   11    6    0.000285    0.000000
   -4   -5    0    1    7    0.000643   -0.000000
   -4   -5    0    2    7    0.000898    0.000000
   -4   -5    0    3    7    0.000335    0.000000
   -4   -5    0    4    7   -0.000697    0.000000
   -4   -5    0    5    7    0.000290   -0.000000
   -4   -5    0    6    7    0.000000    0.000000
   -4   -5    0    7    7   -0.000270   -0.000000
   -4   -5    0    8    7   -0.000000   -0.000000
   -4   -5    0    9    7    0.000000   -0.000000
   -4   -5    0   10    7    0.001026    0.000000
   -4   -5    0   11    7    0.000000    0.000000
   -4   -5    0    1    8    0.000165    0.000000
   -4   -5    0    2    8    0.000387   -0.000000
   -4   -5    0    3    8    0.000226   -0.000000
   -4   -5    0    4    8   -0.000176    0.000000
   -4   -5    0    5    8    0.000048   -0.000000
   -4   -5    0    6    8    0.000166   -0.000000
   -4   -5    0    7    8    0.000000   -0.000000
   -4   -5    0    8    8    0.000188    0.000000
   -4   -5    0    9    8   -0.000066    0.000000
   -4   -5    0   10    8    0.000000    0.000000
   -4   -5    0   11    8   -0.000108   -0.000000
   -4   -5    0    1    9   -0.000809    0.000000
   -4   -5    0    2    9    0.000248    0.000000
   -4   -5    0    3    9    0.000118    0.000000
   -4   -5    0    4    9    0.000966   -0.000000
   -4   -5    0    5    9   -0.000621   -0.000000
   -4   -5    0    6    9   -0.000244    0.000000
   -4   -5    0    7    9   -0.000000    0.000000
   -4   -5    0    8    9   -0.000285   -0.000000
   -4   -5    0    9    9    0.000412    0.000000
   -4   -5    0   10    9   -0.000000    0.000000
   -4   -5    0   11    9   -0.000462    0.000000
   -4   -5    0    1   10    0.000643   -0.000000
   -4   -5    0    2   10   -0.000898   -0.000000
   -4   -5    0    3   10   -0.000335   -0.000000
   -4   -5    0    4   10   -0.000697   -0.000000
   -4   -5    0    5   10    0.000290   -0.000000
   -4   -5    0    6   10   -0.000000    0.000000
   -4   -5    0    7   10    0.001026    0.000000
   -4   -5    0    8   10    0.000000    0.000000
   -4   -5    0    9   10   -0.000000   -0.000000
   -4   -5    0   10   10   -0.000270   -0.000000
   -4   -5    0   11   10   -0.000000   -0.000000
   -4   -5    0    1   11    0.000165    0.000000
   -4   -5    0    2   11   -0.000387    0.000000
   -4   -5    0    3   11   -0.000226    0.000000
   -4   -5    0    4   11   -0.000176   -0.000000
   -4   -5    0    5   11    0.000048   -0.000000
   -4   -5    0    6   11    0.000066   -0.000000
   -4   -5    0    7   11    0.000000    0.000000
   -4   -5    0    8   11   -0.000108   -0.000000
   -4   -5    0    9   11   -0.000166    0.000000
   -4   -5    0   10   11    0.000000   -0.000000
   -4   -5    0   11   11    0.000188    0.000000
   -4   -4    0    1    1    0.001008    0.000000
   -4   -4    0    2    1   -0.000000   -0.000000
   -4   -4    0    3    1   -0.000000    0.000000
   -4   -4    0    4    1   -0.001382   -0.000000
   -4   -4    0    5    1    0.000986   -0.000000
   -4   -4    0    6    1    0.000821   -0.000000
   -4   -4    0    7    1    0.000000   -0.000000
   -4   -4    0    8    1    0.000799   -0.000000
   -4   -4    0    9    1   -0.000821    0.000000
   -4   -4    0   10    1    0.000000   -0.000000
   -4   -4    0   11    1    0.000799   -0.000000
   -4   -4    0    1    2    0.000000    0.000000
   -4   -4    0    2    2    0.001628    0.000000
   -4   -4    0    3    2    0.000184    0.000000
   -4   -4    0    4    2   -0.000000   -0.000000
   -4   -4    0    5    2    0.000000    0.000000
   -4   -4    0    6    2    0.000000    0.000000
   -4   -4    0    7    2   -0.001362   -0.000000
   -4   -4    0    8    2    0.000000   -0.000000
   -4   -4    0    9    2    0.000000    0.000000
   -4   -4    0   10    2    0.001362    0.000000
   -4   -4    0   11    2   -0.000000   -0.000000
   -4   -4    0    1    3   -0.000000    0.000000
   -4   -4    0    2    3   -0.000184    0.000000
   -4   -4    0    3    3   -0.000531   -0.000000
   -4   -4    0    4    3   -0.000000   -0.000000
   -4   -4    0    5    3   -0.000000   -0.000000
   -4   -4    0    6    3    0.000142   -0.000000
   -4   -4    0    7    3    0.000000   -0.000000
   -4   -4    0    8    3   -0.000209    0.000000
   -4   -4    0    9    3    0.000142   -0.000000
   -4   -4    0   10    3   -0.000000    0.000000
   -4   -4    0   11    3    0.000209    0.000000
   -4   -4    0    1    4   -0.001382   -0.000000
   -4   -4    0    2    4    0.000000    0.000000
   -4   -4    0    3    4   -0.000000    0.000000
   -4   -4    0    4    4    0.001497    0.000000
   -4   -4    0    5    4   -0.001756   -0.000000
   -4   -4    0    6    4   -0.001472   -0.000000
   -4   -4    0    7    4   -0.000000   -0.000000
   -4   -4    0    8    4   -0.000467    0.000000
   -4   -4    0    9    4    0.001472   -0.000000
   -4   -4    0   10    4   -0.000000   -0.000000
   -4   -4    0   11    4   -0.000467    0.000000
   -4   -4    0    1    5   -0.000986   -0.000000
   -4   -4    0    2    5    0.000000    0.000000
   -4   -4    0    3    5    0.000000    0.000000
   -4   -4    0    4    5    0.001756   -0.000000
   -4   -4    0    5    5   -0.000510   -0.000000
   -4   -4    0    6    5   -0.000000    0.000000
   -4   -4    0    7    5   -0.000477   -0.000000
   -4   -4    0    8    5   -0.000000   -0.000000
   -4   -4    0    9    5    0.000000   -0.000000
   -4   -4    0   10    5   -0.000477   -0.000000
   -4   -4    0   11    5   -0.000000   -0.000000
   -4   -4    0    1    6   -0.002331    0.000000
   -4   -4    0    2    6   -0.000018   -0.000000
   -4   -4    0    3    6   -0.000450    0.000000
   -4   -4    0    4    6    0.003885    0.000000
   -4   -4    0    5    6   -0.001550   -0.000000
   -4   -4    0    6    6   -0.000803    0.000000
   -4   -4    0    7    6    0.000272    0.000000
   -4   -4    0    8    6   -0.000245   -0.000000
   -4   -4    0    9    6    0.000732    0.000000
   -4   -4    0   10    6    0.000467   -0.000000
   -4   -4    0   11    6   -0.000251   -0.000000
   -4   -4    0    1    7   -0.000587    0.000000
   -4   -4    0    2    7   -0.002469   -0.000000
   -4   -4    0    3    7   -0.001562   -0.000000
   -4   -4    0    4    7    0.001069   -0.000000
   -4   -4    0    5    7   -0.001163   -0.000000
   -4   -4    0    6    7   -0.000272   -0.000000
   -4   -4    0    7    7    0.003768    0.000000
   -4   -4    0    8    7   -0.000238    0.000000
   -4   -4    0    9    7    0.000467   -0.000000
   -4   -4    0   10    7    0.000324   -0.000000
   -4   -4    0   11    7    0.000384   -0.000000
   -4   -4    0    1    8   -0.001579   -0.000000
   -4   -4    0    2    8   -0.000469   -0.000000
   -4   -4    0    3    8   -0.000128    0.000000
   -4   -4    0    4    8    0.001384    0.000000
   -4   -4    0    5    8   -0.000432    0.000000
   -4   -4    0    6    8   -0.000245   -0.000000
   -4   -4    0    7    8    0.000238    0.000000
   -4   -4    0    8    8   -0.000525   -0.000000
   -4   -4    0    9    8    0.000251    0.000000
   -4   -4    0   10    8   -0.000384   -0.000000
   -4   -4    0   11    8    0.000066    0.000000
   -4   -4    0    1    9    0.002331   -0.000000
   -4   -4    0    2    9   -0.000018   -0.000000
   -4   -4    0    3    9   -0.000450   -0.000000
   -4   -4    0    4    9   -0.003885   -0.000000
   -4   -4    0    5    9    0.001550   -0.000000
   -4   -4    0    6    9    0.000732   -0.000000
   -4   -4    0    7    9   -0.000467    0.000000
   -4   -4    0    8    9    0.000251   -0.000000
   -4   -4    0    9    9   -0.000803    0.000000
   -4   -4    0   10    9   -0.000272   -0.000000
   -4   -4    0   11    9    0.000245    0.000000
   -4   -4    0    1   10   -0.000587    0.000000
   -4   -4    0    2   10    0.002469    0.000000
   -4   -4    0    3   10    0.001562    0.000000
   -4   -4    0    4   10    0.001069   -0.000000
   -4   -4    0    5   10   -0.001163    0.000000
   -4   -4    0    6   10   -0.000467    0.000000
   -4   -4    0    7   10    0.000324   -0.000000
   -4   -4    0    8   10    0.000384   -0.000000
   -4   -4    0    9   10    0.000272    0.000000
   -4   -4    0   10   10    0.003768    0.000000
   -4   -4    0   11   10   -0.000238    0.000000
   -4   -4    0    1   11   -0.001579   -0.000000
   -4   -4    0    2   11    0.000469   -0.000000
   -4   -4    0    3   11    0.000128    0.000000
   -4   -4    0    4   11    0.001384    0.000000
   -4   -4    0    5   11   -0.000432   -0.000000
   -4   -4    0    6   11   -0.000251   -0.000000
   -4   -4    0    7   11   -0.000384   -0.000000
   -4   -4    0    8   11    0.000066    0.000000
   -4   -4    0    9   11    0.000245   -0.000000
   -4   -4    0   10   11    0.000238    0.000000
   -4   -4    0   11   11   -0.000525   -0.000000
   -4   -3    0    1    1    0.001825    0.000000
   -4   -3    0    2    1   -0.000000    0.000000
   -4   -3    0    3    1   -0.000000   -0.000000
   -4   -3    0    4    1    0.000175   -0.000000
   -4   -3    0    5    1    0.001900   -0.000000
   -4   -3    0    6    1    0.000809    0.000000
   -4   -3    0    7    1   -0.000643   -0.000000
   -4   -3    0    8    1    0.000165   -0.000000
   -4   -3    0    9    1   -0.000809   -0.000000
   -4   -3    0   10    1   -0.000643    0.000000
   -4   -3    0   11    1    0.000165    0.000000
   -4   -3    0    1    2    0.000000   -0.000000
   -4   -3    0    2    2   -0.002095    0.000000
   -4   -3    0    3    2   -0.000309    0.000000
   -4   -3    0    4    2   -0.000000   -0.000000
   -4   -3    0    5    2    0.000000   -0.000000
   -4   -3    0    6    2   -0.000248   -0.000000
   -4   -3    0    7    2    0.000898    0.000000
   -4   -3    0    8    2   -0.000387   -0.000000
   -4   -3    0    9    2   -0.000248    0.000000
   -4   -3    0   10    2   -0.000898   -0.000000
   -4   -3    0   11    2    0.000387    0.000000
   -4   -3    0    1    3   -0.000000   -0.000000
   -4   -3    0    2    3    0.000688    0.000000
   -4   -3    0    3    3   -0.000568   -0.000000
   -4   -3    0    4    3    0.000000    0.000000
   -4   -3    0    5    3   -0.000000   -0.000000
   -4   -3    0    6    3    0.000118   -0.000000
   -4   -3    0    7    3   -0.000335    0.000000
   -4   -3    0    8    3    0.000226   -0.000000
   -4   -3    0    9    3    0.000118    0.000000
   -4   -3    0   10    3    0.000335   -0.000000
   -4   -3    0   11    3   -0.000226    0.000000
   -4   -3    0    1    4   -0.000745   -0.000000
   -4   -3    0    2    4    0.000000   -0.000000
   -4   -3    0    3    4    0.000000    0.000000
   -4   -3    0    4    4    0.001855    0.000000
   -4   -3    0    5    4   -0.001960   -0.000000
   -4   -3    0    6    4   -0.000966    0.000000
   -4   -3    0    7    4    0.000697    0.000000
   -4   -3    0    8    4   -0.000176   -0.000000
   -4   -3    0    9    4    0.000966    0.000000
   -4   -3    0   10    4    0.000697    0.000000
   -4   -3    0   11    4   -0.000176   -0.000000
   -4   -3    0    1    5   -0.000146   -0.000000
   -4   -3    0    2    5    0.000000   -0.000000
   -4   -3    0    3    5    0.000000   -0.000000
   -4   -3    0    4    5    0.000440   -0.000000
   -4   -3    0    5    5   -0.000061   -0.000000
   -4   -3    0    6    5   -0.000621   -0.000000
   -4   -3    0    7    5    0.000290    0.000000
   -4   -3    0    8    5   -0.000048   -0.000000
   -4   -3    0    9    5    0.000621    0.000000
   -4   -3    0   10    5    0.000290    0.000000
   -4   -3    0   11    5   -0.000048   -0.000000
   -4   -3    0    1    6    0.000616    0.000000
   -4   -3    0    2    6   -0.001875   -0.000000
   -4   -3    0    3    6   -0.000050   -0.000000
   -4   -3    0    4    6   -0.000654   -0.000000
   -4   -3    0    5    6    0.001984    0.000000
   -4   -3    0    6    6    0.000007    0.000000
   -4   -3    0    7    6    0.000464    0.000000
   -4   -3    0    8    6   -0.000531   -0.000000
   -4   -3    0    9    6   -0.000607   -0.000000
   -4   -3    0   10    6   -0.000409   -0.000000
   -4   -3    0   11    6    0.000287    0.000000
   -4   -3    0    1    7    0.002323   -0.000000
   -4   -3    0    2    7    0.001410    0.000000
   -4   -3    0    3    7   -0.000170    0.000000
   -4   -3    0    4    7    0.000003    0.000000
   -4   -3    0    5    7    0.003271    0.000000
   -4   -3    0    6    7    0.001066    0.000000
   -4   -3    0    7    7   -0.000903   -0.000000
   -4   -3    0    8    7   -0.000426   -0.000000
   -4   -3    0    9    7   -0.001113   -0.000000
   -4   -3    0   10    7    0.001199    0.000000
   -4   -3    0   11    7   -0.000001    0.000000
   -4   -3    0    1    8   -0.000180    0.000000
   -4   -3    0    2    8    0.000992   -0.000000
   -4   -3    0    3    8    0.001434   -0.000000
   -4   -3    0    4    8    0.000107   -0.000000
   -4   -3    0    5    8   -0.001098   -0.000000
   -4   -3    0    6    8   -0.000503   -0.000000
   -4   -3    0    7    8   -0.000372   -0.000000
   -4   -3    0    8    8   -0.000518    0.000000
   -4   -3    0    9    8    0.000374    0.000000
   -4   -3    0   10    8    0.000638    0.000000
   -4   -3    0   11    8    0.000016   -0.000000
   -4   -3    0    1    9   -0.000616    0.000000
   -4   -3    0    2    9   -0.001875    0.000000
   -4   -3    0    3    9   -0.000050    0.000000
   -4   -3    0    4    9    0.000654    0.000000
   -4   -3    0    5    9   -0.001984    0.000000
   -4   -3    0    6    9   -0.000607    0.000000
   -4   -3    0    7    9    0.000409    0.000000
   -4   -3    0    8    9   -0.000287    0.000000
   -4   -3    0    9    9    0.000007    0.000000
   -4   -3    0   10    9   -0.000464   -0.000000
   -4   -3    0   11    9    0.000531    0.000000
   -4   -3    0    1   10    0.002323   -0.000000
   -4   -3    0    2   10   -0.001410   -0.000000
   -4   -3    0    3   10    0.000170   -0.000000
   -4   -3    0    4   10    0.000003    0.000000
   -4   -3    0    5   10    0.003271    0.000000
   -4   -3    0    6   10    0.001113    0.000000
   -4   -3    0    7   10    0.001199    0.000000
   -4   -3    0    8   10   -0.000001    0.000000
   -4   -3    0    9   10   -0.001066   -0.000000
   -4   -3    0   10   10   -0.000903   -0.000000
   -4   -3    0   11   10   -0.000426   -0.000000
   -4   -3    0    1   11   -0.000180    0.000000
   -4   -3    0    2   11   -0.000992    0.000000
   -4   -3    0    3   11   -0.001434    0.000000
   -4   -3    0    4   11    0.000107   -0.000000
   -4   -3    0    5   11   -0.001098    0.000000
   -4   -3    0    6   11   -0.000374   -0.000000
   -4   -3    0    7   11    0.000638    0.000000
   -4   -3    0    8   11    0.000016   -0.000000
   -4   -3    0    9   11    0.000503    0.000000
   -4   -3    0   10   11   -0.000372   -0.000000
   -4   -3    0   11   11   -0.000518    0.000000
   -4   -2    0    1    1    0.000228   -0.000000
   -4   -2    0    2    1   -0.000000   -0.000000
   -4   -2    0    3    1    0.000000    0.000000
   -4   -2    0    4    1   -0.002234    0.000000
   -4   -2    0    5    1    0.003960   -0.000000
   -4   -2    0    6    1    0.001705   -0.000000
   -4   -2    0    7    1   -0.000225   -0.000000
   -4   -2    0    8    1    0.000165    0.000000
   -4   -2    0    9    1   -0.001705    0.000000
   -4   -2    0   10    1   -0.000225   -0.000000
   -4   -2    0   11    1    0.000165    0.000000
   -4   -2    0    1    2   -0.000000    0.000000
   -4   -2    0    2    2    0.001081   -0.000000
   -4   -2    0    3    2    0.000309   -0.000000
   -4   -2    0    4    2   -0.000000    0.000000
   -4   -2    0    5    2    0.000000   -0.000000
   -4   -2    0    6    2   -0.000346   -0.000000
   -4   -2    0    7    2   -0.001123   -0.000000
   -4   -2    0    8    2    0.000548    0.000000
   -4   -2    0    9    2   -0.000346   -0.000000
   -4   -2    0   10    2    0.001123    0.000000
   -4   -2    0   11    2   -0.000548   -0.000000
   -4   -2    0    1    3    0.000000   -0.000000
   -4   -2    0    2    3    0.000303   -0.000000
   -4   -2    0    3    3    0.001409   -0.000000
   -4   -2    0    4    3    0.000000   -0.000000
   -4   -2    0    5    3   -0.000000    0.000000
   -4   -2    0    6    3    0.000196    0.000000
   -4   -2    0    7    3    0.000561    0.000000
   -4   -2    0    8    3   -0.000467    0.000000
   -4   -2    0    9    3    0.000196    0.000000
   -4   -2    0   10    3   -0.000561   -0.000000
   -4   -2    0   11    3    0.000467   -0.000000
   -4   -2    0    1    4   -0.000965   -0.000000
   -4   -2    0    2    4   -0.000000   -0.000000
   -4   -2    0    3    4   -0.000000   -0.000000
   -4   -2    0    4    4    0.000034   -0.000000
   -4   -2    0    5    4   -0.001633   -0.000000
   -4   -2    0    6    4   -0.000755   -0.000000
   -4   -2    0    7    4    0.000348   -0.000000
   -4   -2    0    8    4   -0.000005    0.000000
   -4   -2    0    9    4    0.000755   -0.000000
   -4   -2    0   10    4    0.000348    0.000000
   -4   -2    0   11    4   -0.000005    0.000000
   -4   -2    0    1    5    0.001798    0.000000
   -4   -2    0    2    5   -0.000000    0.000000
   -4   -2    0    3    5   -0.000000   -0.000000
   -4   -2    0    4    5   -0.001696    0.000000
   -4   -2    0    5    5    0.002367   -0.000000
   -4   -2    0    6    5    0.001518   -0.000000
   -4   -2    0    7    5   -0.000400    0.000000
   -4   -2    0    8    5    0.000406   -0.000000
   -4   -2    0    9    5   -0.001518    0.000000
   -4   -2    0   10    5   -0.000400    0.000000
   -4   -2    0   11    5    0.000406    0.000000
   -4   -2    0    1    6    0.003425    0.000000
   -4   -2    0    2    6    0.000626    0.000000
   -4   -2    0    3    6   -0.000305   -0.000000
   -4   -2    0    4    6   -0.002376   -0.000000
   -4   -2    0    5    6    0.004445    0.000000
   -4   -2    0    6    6    0.001662    0.000000
   -4   -2    0    7    6   -0.000670    0.000000
   -4   -2    0    8    6    0.000390   -0.000000
   -4   -2    0    9    6   -0.001667    0.000000
   -4   -2    0   10    6    0.000229    0.000000
   -4   -2    0   11    6   -0.000032   -0.000000
   -4   -2    0    1    7    0.000863    0.000000
   -4   -2    0    2    7   -0.001253   -0.000000
   -4   -2    0    3    7    0.000142   -0.000000
   -4   -2    0    4    7   -0.002784   -0.000000
   -4   -2    0    5    7    0.004829   -0.000000
   -4   -2    0    6    7    0.001173   -0.000000
   -4   -2    0    7    7    0.001255    0.000000
   -4   -2    0    8    7   -0.000286   -0.000000
   -4   -2    0    9    7   -0.001142    0.000000
   -4   -2    0   10    7   -0.001122    0.000000
   -4   -2    0   11    7   -0.000155   -0.000000
   -4   -2    0    1    8   -0.000378   -0.000000
   -4   -2    0    2    8    0.000191   -0.000000
   -4   -2    0    3    8   -0.001027   -0.000000
   -4   -2    0    4    8    0.001495   -0.000000
   -4   -2    0    5    8   -0.002606   -0.000000
   -4   -2    0    6    8   -0.000640    0.000000
   -4   -2    0    7    8   -0.000337   -0.000000
   -4   -2    0    8    8    0.000910    0.000000
   -4   -2    0    9    8    0.000557   -0.000000
   -4   -2    0   10    8   -0.000178    0.000000
   -4   -2    0   11    8   -0.001376    0.000000
   -4   -2    0    1    9   -0.003425   -0.000000
   -4   -2    0    2    9    0.000626    0.000000
   -4   -2    0    3    9   -0.000305   -0.000000
   -4   -2    0    4    9    0.002376    0.000000
   -4   -2    0    5    9   -0.004445   -0.000000
   -4   -2    0    6    9   -0.001667   -0.000000
   -4   -2    0    7    9   -0.000229   -0.000000
   -4   -2    0    8    9    0.000032    0.000000
   -4   -2    0    9    9    0.001662    0.000000
   -4   -2    0   10    9    0.000670    0.000000
   -4   -2    0   11    9   -0.000390   -0.000000
   -4   -2    0    1   10    0.000863    0.000000
   -4   -2    0    2   10    0.001253   -0.000000
   -4   -2    0    3   10   -0.000142    0.000000
   -4   -2    0    4   10   -0.002784    0.000000
   -4   -2    0    5   10    0.004829   -0.000000
   -4   -2    0    6   10    0.001142   -0.000000
   -4   -2    0    7   10   -0.001122   -0.000000
   -4   -2    0    8   10   -0.000155   -0.000000
   -4   -2    0    9   10   -0.001173    0.000000
   -4   -2    0   10   10    0.001255    0.000000
   -4   -2    0   11   10   -0.000286   -0.000000
   -4   -2    0    1   11   -0.000378   -0.000000
   -4   -2    0    2   11   -0.000191    0.000000
   -4   -2    0    3   11    0.001027    0.000000
   -4   -2    0    4   11    0.001495   -0.000000
   -4   -2    0    5   11   -0.002606    0.000000
   -4   -2    0    6   11   -0.000557    0.000000
   -4   -2    0    7   11   -0.000178    0.000000
   -4   -2    0    8   11   -0.001376   -0.000000
   -4   -2    0    9   11    0.000640   -0.000000
   -4   -2    0   10   11   -0.000337   -0.000000
   -4   -2    0   11   11    0.000910    0.000000
   -4   -1    0    1    1    0.001838   -0.000000
   -4   -1    0    2    1    0.000000    0.000000
   -4   -1    0    3    1    0.000000    0.000000
   -4   -1    0    4    1   -0.001581    0.000000
   -4   -1    0    5    1    0.000627    0.000000
   -4   -1    0    6    1    0.000691    0.000000
   -4   -1    0    7    1   -0.000405    0.000000
   -4   -1    0    8    1    0.000445   -0.000000
   -4   -1    0    9    1   -0.000691   -0.000000
   -4   -1    0   10    1   -0.000405    0.000000
   -4   -1    0   11    1    0.000445   -0.000000
   -4   -1    0    1    2    0.000000   -0.000000
   -4   -1    0    2    2   -0.001114   -0.000000
   -4   -1    0    3    2    0.001258   -0.000000
   -4   -1    0    4    2   -0.000000    0.000000
   -4   -1    0    5    2    0.000000    0.000000
   -4   -1    0    6    2   -0.000223    0.000000
   -4   -1    0    7    2    0.000692   -0.000000
   -4   -1    0    8    2   -0.000464    0.000000
   -4   -1    0    9    2   -0.000223   -0.000000
   -4   -1    0   10    2   -0.000692    0.000000
   -4   -1    0   11    2    0.000464   -0.000000
   -4   -1    0    1    3   -0.000000    0.000000
   -4   -1    0    2    3    0.000247   -0.000000
   -4   -1    0    3    3   -0.001542    0.000000
   -4   -1    0    4    3    0.000000   -0.000000
   -4   -1    0    5    3   -0.000000    0.000000
   -4   -1    0    6    3    0.000152    0.000000
   -4   -1    0    7    3   -0.000492   -0.000000
   -4   -1    0    8    3    0.000421    0.000000
   -4   -1    0    9    3    0.000152   -0.000000
   -4   -1    0   10    3    0.000492    0.000000
   -4   -1    0   11    3   -0.000421   -0.000000
   -4   -1    0    1    4    0.000611    0.000000
   -4   -1    0    2    4    0.000000    0.000000
   -4   -1    0    3    4    0.000000   -0.000000
   -4   -1    0    4    4   -0.000317   -0.000000
   -4   -1    0    5    4    0.001650    0.000000
   -4   -1    0    6    4    0.001045    0.000000
   -4   -1    0    7    4   -0.000409   -0.000000
   -4   -1    0    8    4    0.000528    0.000000
   -4   -1    0    9    4   -0.001045   -0.000000
   -4   -1    0   10    4   -0.000409   -0.000000
   -4   -1    0   11    4    0.000528    0.000000
   -4   -1    0    1    5    0.000648    0.000000
   -4   -1    0    2    5    0.000000    0.000000
   -4   -1    0    3    5    0.000000    0.000000
   -4   -1    0    4    5   -0.000744    0.000000
   -4   -1    0    5    5    0.002172    0.000000
   -4   -1    0    6    5    0.000578   -0.000000
   -4   -1    0    7    5   -0.000341   -0.000000
   -4   -1    0    8    5    0.000371    0.000000
   -4   -1    0    9    5   -0.000578   -0.000000
   -4   -1    0   10    5   -0.000341   -0.000000
   -4   -1    0   11    5    0.000371    0.000000
   -4   -1    0    1    6    0.000663    0.000000
   -4   -1    0    2    6   -0.000933    0.000000
   -4   -1    0    3    6    0.001548    0.000000
   -4   -1    0    4    6   -0.001382   -0.000000
   -4   -1    0    5    6    0.001473    0.000000
   -4   -1    0    6    6   -0.000040   -0.000000
   -4   -1    0    7    6    0.000710   -0.000000
   -4   -1    0    8    6   -0.000064    0.000000
   -4   -1    0    9    6   -0.000581   -0.000000
   -4   -1    0   10    6   -0.000398   -0.000000
   -4   -1    0   11    6    0.000177    0.000000
   -4   -1    0    1    7    0.001437   -0.000000
   -4   -1    0    2    7    0.000992   -0.000000
   -4   -1    0    3    7    0.000859   -0.000000
   -4   -1    0    4    7   -0.002136   -0.000000
   -4   -1    0    5    7    0.001422   -0.000000
   -4   -1    0    6    7    0.000966   -0.000000
   -4   -1    0    7    7   -0.000222    0.000000
   -4   -1    0    8    7    0.000024    0.000000
   -4   -1    0    9    7   -0.000896   -0.000000
   -4   -1    0   10    7    0.000031   -0.000000
   -4   -1    0   11    7    0.000008   -0.000000
   -4   -1    0    1    8   -0.001948   -0.000000
   -4   -1    0    2    8   -0.000415    0.000000
   -4   -1    0    3    8    0.001832    0.000000
   -4   -1    0    4    8    0.001781    0.000000
   -4   -1    0    5    8   -0.001024    0.000000
   -4   -1    0    6    8   -0.000587    0.000000
   -4   -1    0    7    8   -0.000048    0.000000
   -4   -1    0    8    8   -0.001192   -0.000000
   -4   -1    0    9    8    0.000751    0.000000
   -4   -1    0   10    8   -0.000736   -0.000000
   -4   -1    0   11    8    0.001177    0.000000
   -4   -1    0    1    9   -0.000663    0.000000
   -4   -1    0    2    9   -0.000933   -0.000000
   -4   -1    0    3    9    0.001548   -0.000000
   -4   -1    0    4    9    0.001382   -0.000000
   -4   -1    0    5    9   -0.001473   -0.000000
   -4   -1    0    6    9   -0.000581    0.000000
   -4   -1    0    7    9    0.000398   -0.000000
   -4   -1    0    8    9   -0.000177   -0.000000
   -4   -1    0    9    9   -0.000040   -0.000000
   -4   -1    0   10    9   -0.000710    0.000000
   -4   -1    0   11    9    0.000064   -0.000000
   -4   -1    0    1   10    0.001437   -0.000000
   -4   -1    0    2   10   -0.000992    0.000000
   -4   -1    0    3   10   -0.000859    0.000000
   -4   -1    0    4   10   -0.002136   -0.000000
   -4   -1    0    5   10    0.001422   -0.000000
   -4   -1    0    6   10    0.000896    0.000000
   -4   -1    0    7   10    0.000031   -0.000000
   -4   -1    0    8   10    0.000008   -0.000000
   -4   -1    0    9   10   -0.000966    0.000000
   -4   -1    0   10   10   -0.000222    0.000000
   -4   -1    0   11   10    0.000024    0.000000
   -4   -1    0    1   11   -0.001948   -0.000000
   -4   -1    0    2   11    0.000415   -0.000000
   -4   -1    0    3   11   -0.001832   -0.000000
   -4   -1    0    4   11    0.001781    0.000000
   -4   -1    0    5   11   -0.001024   -0.000000
   -4   -1    0    6   11   -0.000751   -0.000000
   -4   -1    0    7   11   -0.000736   -0.000000
   -4   -1    0    8   11    0.001177    0.000000
   -4   -1    0    9   11    0.000587   -0.000000
   -4   -1    0   10   11   -0.000048    0.000000
   -4   -1    0   11   11   -0.001192   -0.000000
   -4    0    0    1    1    0.000803    0.000000
   -4    0    0    2    1    0.000000   -0.000000
   -4    0    0    3    1    0.000000   -0.000000
   -4    0    0    4    1   -0.000010    0.000000
   -4    0    0    5    1    0.001443    0.000000
   -4    0    0    6    1    0.000747   -0.000000
   -4    0    0    7    1   -0.000645   -0.000000
   -4    0    0    8    1   -0.000328    0.000000
   -4    0    0    9    1   -0.000747    0.000000
   -4    0    0   10    1   -0.000645   -0.000000
   -4    0    0   11    1   -0.000328    0.000000
   -4    0    0    1    2    0.000000    0.000000
   -4    0    0    2    2   -0.000000   -0.000000
   -4    0    0    3    2   -0.001117   -0.000000
   -4    0    0    4    2    0.000000   -0.000000
   -4    0    0    5    2    0.000000   -0.000000
   -4    0    0    6    2   -0.000128    0.000000
   -4    0    0    7    2   -0.000500    0.000000
   -4    0    0    8    2    0.000501    0.000000
   -4    0    0    9    2   -0.000128    0.000000
   -4    0    0   10    2    0.000500    0.000000
   -4    0    0   11    2   -0.000501    0.000000
   -4    0    0    1    3   -0.000000   -0.000000
   -4    0    0    2    3   -0.000743   -0.000000
   -4    0    0    3    3    0.001093    0.000000
   -4    0    0    4    3   -0.000000   -0.000000
   -4    0    0    5    3   -0.000000   -0.000000
   -4    0    0    6    3   -0.000035   -0.000000
   -4    0    0    7    3    0.000500    0.000000
   -4    0    0    8    3   -0.001080   -0.000000
   -4    0    0    9    3   -0.000035   -0.000000
   -4    0    0   10    3   -0.000500   -0.000000
   -4    0    0   11    3    0.001080    0.000000
   -4    0    0    1    4    0.001454    0.000000
   -4    0    0    2    4   -0.000000    0.000000
   -4    0    0    3    4    0.000000    0.000000
   -4    0    0    4    4    0.000106   -0.000000
   -4    0    0    5    4    0.002769    0.000000
   -4    0    0    6    4    0.000823    0.000000
   -4    0    0    7    4   -0.000018    0.000000
   -4    0    0    8    4   -0.000460   -0.000000
   -4    0    0    9    4   -0.000823    0.000000
   -4    0    0   10    4   -0.000018    0.000000
   -4    0    0   11    4   -0.000460   -0.000000
   -4    0    0    1    5    0.000824    0.000000
   -4    0    0    2    5   -0.000000   -0.000000
   -4    0    0    3    5    0.000000    0.000000
   -4    0    0    4    5   -0.000832    0.000000
   -4    0    0    5    5    0.001126    0.000000
   -4    0    0    6    5    0.001341    0.000000
   -4    0    0    7    5   -0.000458    0.000000
   -4    0    0    8    5    0.000053    0.000000
   -4    0    0    9    5   -0.001341    0.000000
   -4    0    0   10    5   -0.000458    0.000000
   -4    0    0   11    5    0.000053    0.000000
   -4    0    0    1    6   -0.002199    0.000000
   -4    0    0    2    6    0.000380   -0.000000
   -4    0    0    3    6    0.000323   -0.000000
   -4    0    0    4    6   -0.000789    0.000000
   -4    0    0    5    6   -0.004395   -0.000000
   -4    0    0    6    6   -0.000837   -0.000000
   -4    0    0    7    6    0.000407    0.000000
   -4    0    0    8    6   -0.000234    0.000000
   -4    0    0    9    6    0.000773    0.000000
   -4    0    0   10    6    0.000414   -0.000000
   -4    0    0   11    6   -0.000313    0.000000
   -4    0    0    1    7    0.000943    0.000000
   -4    0    0    2    7    0.000196    0.000000
   -4    0    0    3    7    0.001045    0.000000
   -4    0    0    4    7    0.000572    0.000000
   -4    0    0    5    7    0.000385    0.000000
   -4    0    0    6    7    0.000117   -0.000000
   -4    0    0    7    7    0.000539   -0.000000
   -4    0    0    8    7   -0.001612   -0.000000
   -4    0    0    9    7    0.000005   -0.000000
   -4    0    0   10    7    0.000152    0.000000
   -4    0    0   11    7   -0.000501    0.000000
   -4    0    0    1    8    0.001119    0.000000
   -4    0    0    2    8    0.000007    0.000000
   -4    0    0    3    8   -0.002725   -0.000000
   -4    0    0    4    8   -0.000221   -0.000000
   -4    0    0    5    8    0.001855    0.000000
   -4    0    0    6    8    0.000247    0.000000
   -4    0    0    7    8   -0.002055   -0.000000
   -4    0    0    8    8    0.002720    0.000000
   -4    0    0    9    8   -0.000464    0.000000
   -4    0    0   10    8    0.000296    0.000000
   -4    0    0   11    8    0.000258   -0.000000
   -4    0    0    1    9    0.002199   -0.000000
   -4    0    0    2    9    0.000380   -0.000000
   -4    0    0    3    9    0.000323    0.000000
   -4    0    0    4    9    0.000789    0.000000
   -4    0    0    5    9    0.004395    0.000000
   -4    0    0    6    9    0.000773    0.000000
   -4    0    0    7    9   -0.000414    0.000000
   -4    0    0    8    9    0.000313   -0.000000
   -4    0    0    9    9   -0.000837   -0.000000
   -4    0    0   10    9   -0.000407   -0.000000
   -4    0    0   11    9    0.000234   -0.000000
   -4    0    0    1   10    0.000943    0.000000
   -4    0    0    2   10   -0.000196   -0.000000
   -4    0    0    3   10   -0.001045   -0.000000
   -4    0    0    4   10    0.000572    0.000000
   -4    0    0    5   10    0.000385    0.000000
   -4    0    0    6   10   -0.000005    0.000000
   -4    0    0    7   10    0.000152    0.000000
   -4    0    0    8   10   -0.000501    0.000000
   -4    0    0    9   10   -0.000117    0.000000
   -4    0    0   10   10    0.000539   -0.000000
   -4    0    0   11   10   -0.001612   -0.000000
   -4    0    0    1   11    0.001119    0.000000
   -4    0    0    2   11   -0.000007    0.000000
   -4    0    0    3   11    0.002725    0.000000
   -4    0    0    4   11   -0.000221    0.000000
   -4    0    0    5   11    0.001855    0.000000
   -4    0    0    6   11    0.000464    0.000000
   -4    0    0    7   11    0.000296    0.000000
   -4    0    0    8   11    0.000258   -0.000000
   -4    0    0    9   11   -0.000247   -0.000000
   -4    0    0   10   11   -0.002055   -0.000000
   -4    0    0   11   11    0.002720    0.000000
   -4    1    0    1    1   -0.000140   -0.000000
   -4    1    0    2    1   -0.000000    0.000000
   -4    1    0    3    1   -0.000000    0.000000
   -4    1    0    4    1   -0.000461    0.000000
   -4    1    0    5    1   -0.000716    0.000000
   -4    1    0    6    1    0.000015    0.000000
   -4    1    0    7    1   -0.000048    0.000000
   -4    1    0    8    1   -0.000010   -0.000000
   -4    1    0    9    1   -0.000015   -0.000000
   -4    1    0   10    1   -0.000048    0.000000
   -4    1    0   11    1   -0.000010   -0.000000
   -4    1    0    1    2   -0.000000    0.000000
   -4    1    0    2    2    0.000022    0.000000
   -4    1    0    3    2    0.000222    0.000000
   -4    1    0    4    2   -0.000000    0.000000
   -4    1    0    5    2   -0.000000    0.000000
   -4    1    0    6    2    0.000075    0.000000
   -4    1    0    7    2    0.000197   -0.000000
   -4    1    0    8    2   -0.000246    0.000000
   -4    1    0    9    2    0.000075    0.000000
   -4    1    0   10    2   -0.000197    0.000000
   -4    1    0   11    2    0.000246   -0.000000
   -4    1    0    1    3   -0.000000    0.000000
   -4    1    0    2    3    0.000223    0.000000
   -4    1    0    3    3   -0.000250   -0.000000
   -4    1    0    4    3   -0.000000    0.000000
   -4    1    0    5    3   -0.000000    0.000000
   -4    1    0    6    3   -0.000268    0.000000
   -4    1    0    7    3    0.000048   -0.000000
   -4    1    0    8    3    0.001120    0.000000
   -4    1    0    9    3   -0.000268   -0.000000
   -4    1    0   10    3   -0.000048    0.000000
   -4    1    0   11    3   -0.001120   -0.000000
   -4    1    0    1    4    0.000074    0.000000
   -4    1    0    2    4    0.000000   -0.000000
   -4    1    0    3    4   -0.000000   -0.000000
   -4    1    0    4    4    0.000179   -0.000000
   -4    1    0    5    4   -0.000750    0.000000
   -4    1    0    6    4   -0.000025   -0.000000
   -4    1    0    7    4    0.000705    0.000000
   -4    1    0    8    4   -0.000484   -0.000000
   -4    1    0    9    4    0.000025    0.000000
   -4    1    0   10    4    0.000705    0.000000
   -4    1    0   11    4   -0.000484    0.000000
   -4    1    0    1    5    0.000185    0.000000
   -4    1    0    2    5    0.000000    0.000000
   -4    1    0    3    5    0.000000   -0.000000
   -4    1    0    4    5   -0.000637    0.000000
   -4    1    0    5    5   -0.000633    0.000000
   -4    1    0    6    5    0.000244   -0.000000
   -4    1    0    7    5   -0.000101    0.000000
   -4    1    0    8    5   -0.000386    0.000000
   -4    1    0    9    5   -0.000244    0.000000
   -4    1    0   10    5   -0.000101    0.000000
   -4    1    0   11    5   -0.000386    0.000000
   -4    1    0    1    6    0.000790   -0.000000
   -4    1    0    2    6    0.000020    0.000000
   -4    1    0    3    6   -0.000314    0.000000
   -4    1    0    4    6    0.000045   -0.000000
   -4    1    0    5    6    0.001201   -0.000000
   -4    1    0    6    6    0.000466   -0.000000
   -4    1    0    7    6   -0.000402   -0.000000
   -4    1    0    8    6   -0.000215    0.000000
   -4    1    0    9    6   -0.000282   -0.000000
   -4    1    0   10    6   -0.000226   -0.000000
   -4    1    0   11    6   -0.000154    0.000000
   -4    1    0    1    7    0.000180   -0.000000
   -4    1    0    2    7    0.000069   -0.000000
   -4    1    0    3    7   -0.000098   -0.000000
   -4    1    0    4    7    0.000020    0.000000
   -4    1    0    5    7    0.000249    0.000000
   -4    1    0    6    7   -0.000142    0.000000
   -4    1    0    7    7    0.000066    0.000000
   -4    1    0    8    7    0.000183    0.000000
   -4    1    0    9    7    0.000026   -0.000000
   -4    1    0   10    7    0.000169   -0.000000
   -4    1    0   11    7   -0.000504   -0.000000
   -4    1    0    1    8   -0.000564    0.000000
   -4    1    0    2    8   -0.000145    0.000000
   -4    1    0    3    8    0.001025   -0.000000
   -4    1    0    4    8   -0.000139   -0.000000
   -4    1    0    5    8   -0.000703    0.000000
   -4    1    0    6    8   -0.000063    0.000000
   -4    1    0    7    8    0.000168    0.000000
   -4    1    0    8    8   -0.000172   -0.000000
   -4    1    0    9    8    0.000032    0.000000
   -4    1    0   10    8   -0.000505   -0.000000
   -4    1    0   11    8    0.000750    0.000000
   -4    1    0    1    9   -0.000790    0.000000
   -4    1    0    2    9    0.000020   -0.000000
   -4    1    0    3    9   -0.000314   -0.000000
   -4    1    0    4    9   -0.000045    0.000000
   -4    1    0    5    9   -0.001201    0.000000
   -4    1    0    6    9   -0.000282    0.000000
   -4    1    0    7    9    0.000226    0.000000
   -4    1    0    8    9    0.000154   -0.000000
   -4    1    0    9    9    0.000466   -0.000000
   -4    1    0   10    9    0.000402    0.000000
   -4    1    0   11    9    0.000215   -0.000000
   -4    1    0    1   10    0.000180   -0.000000
   -4    1    0    2   10   -0.000069    0.000000
   -4    1    0    3   10    0.000098    0.000000
   -4    1    0    4   10    0.000020    0.000000
   -4    1    0    5   10    0.000249   -0.000000
   -4    1    0    6   10   -0.000026    0.000000
   -4    1    0    7   10    0.000169   -0.000000
   -4    1    0    8   10   -0.000504   -0.000000
   -4    1    0    9   10    0.000142   -0.000000
   -4    1    0   10   10    0.000066    0.000000
   -4    1    0   11   10    0.000183    0.000000
   -4    1    0    1   11   -0.000564    0.000000
   -4    1    0    2   11    0.000145   -0.000000
   -4    1    0    3   11   -0.001025   -0.000000
   -4    1    0    4   11   -0.000139   -0.000000
   -4    1    0    5   11   -0.000703    0.000000
   -4    1    0    6   11   -0.000032   -0.000000
   -4    1    0    7   11   -0.000505   -0.000000
   -4    1    0    8   11    0.000750    0.000000
   -4    1    0    9   11    0.000063   -0.000000
   -4    1    0   10   11    0.000168    0.000000
   -4    1    0   11   11   -0.000172   -0.000000
   -3   -5    0    1    1   -0.000692   -0.000000
   -3   -5    0    2    1    0.000000    0.000000
   -3   -5    0    3    1   -0.000000    0.000000
   -3   -5    0    4    1   -0.000122    0.000000
   -3   -5    0    5    1    0.000562    0.000000
   -3   -5    0    6    1    0.000365    0.000000
   -3   -5    0    7    1   -0.000000    0.000000
   -3   -5    0    8    1   -0.000163   -0.000000
   -3   -5    0    9    1   -0.000365   -0.000000
   -3   -5    0   10    1   -0.000000    0.000000
   -3   -5    0   11    1   -0.000163   -0.000000
   -3   -5    0    1    2   -0.000000   -0.000000
   -3   -5    0    2    2    0.000497   -0.000000
   -3   -5    0    3    2   -0.000058   -0.000000
   -3   -5    0    4    2    0.000000    0.000000
   -3   -5    0    5    2    0.000000    0.000000
   -3   -5    0    6    2    0.000000    0.000000
   -3   -5    0    7    2   -0.000390   -0.000000
   -3   -5    0    8    2    0.000000    0.000000
   -3   -5    0    9    2    0.000000   -0.000000
   -3   -5    0   10    2    0.000390    0.000000
   -3   -5    0   11    2    0.000000   -0.000000
   -3   -5    0    1    3   -0.000000    0.000000
   -3   -5    0    2    3    0.000038   -0.000000
   -3   -5    0    3    3   -0.000077    0.000000
   -3   -5    0    4    3    0.000000    0.000000
   -3   -5    0    5    3   -0.000000    0.000000
   -3   -5    0    6    3    0.000068    0.000000
   -3   -5    0    7    3    0.000000   -0.000000
   -3   -5    0    8    3    0.000116    0.000000
   -3   -5    0    9    3    0.000068   -0.000000
   -3   -5    0   10    3   -0.000000    0.000000
   -3   -5    0   11    3   -0.000116   -0.000000
   -3   -5    0    1    4    0.000080    0.000000
   -3   -5    0    2    4    0.000000   -0.000000
   -3   -5    0    3    4   -0.000000   -0.000000
   -3   -5    0    4    4   -0.000564   -0.000000
   -3   -5    0    5    4    0.000266    0.000000
   -3   -5    0    6    4   -0.000097    0.000000
   -3   -5    0    7    4    0.000000   -0.000000
   -3   -5    0    8    4    0.000303    0.000000
   -3   -5    0    9    4    0.000097   -0.000000
   -3   -5    0   10    4    0.000000   -0.000000
   -3   -5    0   11    4    0.000303    0.000000
   -3   -5    0    1    5    0.001879    0.000000
   -3   -5    0    2    5   -0.000000    0.000000
   -3   -5    0    3    5   -0.000000    0.000000
   -3   -5    0    4    5   -0.001377    0.000000
   -3   -5    0    5    5   -0.000605    0.000000
   -3   -5    0    6    5   -0.000000   -0.000000
   -3   -5    0    7    5    0.000963   -0.000000
   -3   -5    0    8    5    0.000000    0.000000
   -3   -5    0    9    5    0.000000   -0.000000
   -3   -5    0   10    5    0.000963   -0.000000
   -3   -5    0   11    5    0.000000    0.000000
   -3   -5    0    1    6    0.001705   -0.000000
   -3   -5    0    2    6    0.000346   -0.000000
   -3   -5    0    3    6    0.000196    0.000000
   -3   -5    0    4    6   -0.000755   -0.000000
   -3   -5    0    5    6   -0.001518    0.000000
   -3   -5    0    6    6   -0.000405   -0.000000
   -3   -5    0    7    6    0.000663   -0.000000
   -3   -5    0    8    6    0.000079    0.000000
   -3   -5    0    9    6    0.000467   -0.000000
   -3   -5    0   10    6    0.000686   -0.000000
   -3   -5    0   11    6    0.000099    0.000000
   -3   -5    0    1    7    0.000225    0.000000
   -3   -5    0    2    7   -0.001123   -0.000000
   -3   -5    0    3    7   -0.000561   -0.000000
   -3   -5    0    4    7   -0.000348   -0.000000
   -3   -5    0    5    7   -0.000400   -0.000000
   -3   -5    0    6    7   -0.000078    0.000000
   -3   -5    0    7    7    0.000832    0.000000
   -3   -5    0    8    7    0.000051    0.000000
   -3   -5    0    9    7    0.000183   -0.000000
   -3   -5    0   10    7   -0.000338   -0.000000
   -3   -5    0   11    7    0.000337   -0.000000
   -3   -5    0    1    8    0.000165   -0.000000
   -3   -5    0    2    8   -0.000548    0.000000
   -3   -5    0    3    8   -0.000467    0.000000
   -3   -5    0    4    8   -0.000005    0.000000
   -3   -5    0    5    8   -0.000406    0.000000
   -3   -5    0    6    8   -0.000170    0.000000
   -3   -5    0    7    8    0.000227    0.000000
   -3   -5    0    8    8   -0.000117   -0.000000
   -3   -5    0    9    8    0.000103   -0.000000
   -3   -5    0   10    8    0.000182   -0.000000
   -3   -5    0   11    8    0.000222    0.000000
   -3   -5    0    1    9   -0.001705    0.000000
   -3   -5    0    2    9    0.000346    0.000000
   -3   -5    0    3    9    0.000196   -0.000000
   -3   -5    0    4    9    0.000755   -0.000000
   -3   -5    0    5    9    0.001518   -0.000000
   -3   -5    0    6    9    0.000467    0.000000
   -3   -5    0    7    9   -0.000686    0.000000
   -3   -5    0    8    9   -0.000099   -0.000000
   -3   -5    0    9    9   -0.000405   -0.000000
   -3   -5    0   10    9   -0.000663    0.000000
   -3   -5    0   11    9   -0.000079   -0.000000
   -3   -5    0    1   10    0.000225   -0.000000
   -3   -5    0    2   10    0.001123    0.000000
   -3   -5    0    3   10    0.000561    0.000000
   -3   -5    0    4   10   -0.000348   -0.000000
   -3   -5    0    5   10   -0.000400   -0.000000
   -3   -5    0    6   10   -0.000183    0.000000
   -3   -5    0    7   10   -0.000338   -0.000000
   -3   -5    0    8   10    0.000337   -0.000000
   -3   -5    0    9   10    0.000078    0.000000
   -3   -5    0   10   10    0.000832    0.000000
   -3   -5    0   11   10    0.000051    0.000000
   -3   -5    0    1   11    0.000165   -0.000000
   -3   -5    0    2   11    0.000548   -0.000000
   -3   -5    0    3   11    0.000467   -0.000000
   -3   -5    0    4   11   -0.000005    0.000000
   -3   -5    0    5   11   -0.000406    0.000000
   -3   -5    0    6   11   -0.000103   -0.000000
   -3   -5    0    7   11    0.000182   -0.000000
   -3   -5    0    8   11    0.000222    0.000000
   -3   -5    0    9   11    0.000170   -0.000000
   -3   -5    0   10   11    0.000227    0.000000
   -3   -5    0   11   11   -0.000117   -0.000000
   -3   -4    0    1    1    0.001825   -0.000000
   -3   -4    0    2    1   -0.000000   -0.000000
   -3   -4    0    3    1   -0.000000   -0.000000
   -3   -4    0    4    1   -0.000745    0.000000
   -3   -4    0    5    1    0.000146    0.000000
   -3   -4    0    6    1    0.000003   -0.000000
   -3   -4    0    7    1   -0.000048   -0.000000
   -3   -4    0    8    1    0.000026    0.000000
   -3   -4    0    9    1   -0.000003    0.000000
   -3   -4    0   10    1   -0.000048   -0.000000
   -3   -4    0   11    1    0.000026    0.000000
   -3   -4    0    1    2    0.000000    0.000000
   -3   -4    0    2    2   -0.002095   -0.000000
   -3   -4    0    3    2   -0.000688   -0.000000
   -3   -4    0    4    2   -0.000000   -0.000000
   -3   -4    0    5    2    0.000000   -0.000000
   -3   -4    0    6    2   -0.000222    0.000000
   -3   -4    0    7    2    0.001000    0.000000
   -3   -4    0    8    2   -0.000493    0.000000
   -3   -4    0    9    2   -0.000222    0.000000
   -3   -4    0   10    2   -0.001000    0.000000
   -3   -4    0   11    2    0.000493    0.000000
   -3   -4    0    1    3   -0.000000   -0.000000
   -3   -4    0    2    3    0.000309   -0.000000
   -3   -4    0    3    3   -0.000568    0.000000
   -3   -4    0    4    3    0.000000   -0.000000
   -3   -4    0    5    3   -0.000000   -0.000000
   -3   -4    0    6    3    0.000045   -0.000000
   -3   -4    0    7    3   -0.000213    0.000000
   -3   -4    0    8    3    0.000352   -0.000000
   -3   -4    0    9    3    0.000045   -0.000000
   -3   -4    0   10    3    0.000213   -0.000000
   -3   -4    0   11    3   -0.000352    0.000000
   -3   -4    0    1    4    0.000175    0.000000
   -3   -4    0    2    4    0.000000    0.000000
   -3   -4    0    3    4    0.000000    0.000000
   -3   -4    0    4    4    0.001855   -0.000000
   -3   -4    0    5    4   -0.000440    0.000000
   -3   -4    0    6    4   -0.000138    0.000000
   -3   -4    0    7    4    0.000610    0.000000
   -3   -4    0    8    4   -0.000069   -0.000000
   -3   -4    0    9    4    0.000138    0.000000
   -3   -4    0   10    4    0.000610    0.000000
   -3   -4    0   11    4   -0.000069   -0.000000
   -3   -4    0    1    5   -0.001900    0.000000
   -3   -4    0    2    5    0.000000   -0.000000
   -3   -4    0    3    5    0.000000    0.000000
   -3   -4    0    4    5    0.001960    0.000000
   -3   -4    0    5    5   -0.000061    0.000000
   -3   -4    0    6    5   -0.000119    0.000000
   -3   -4    0    7    5   -0.000527    0.000000
   -3   -4    0    8    5   -0.000471    0.000000
   -3   -4    0    9    5    0.000119    0.000000
   -3   -4    0   10    5   -0.000527   -0.000000
   -3   -4    0   11    5   -0.000471    0.000000
   -3   -4    0    1    6   -0.003469    0.000000
   -3   -4    0    2    6   -0.000792   -0.000000
   -3   -4    0    3    6    0.000441    0.000000
   -3   -4    0    4    6    0.002566   -0.000000
   -3   -4    0    5    6    0.001241   -0.000000
   -3   -4    0    6    6    0.000007    0.000000
   -3   -4    0    7    6   -0.001066    0.000000
   -3   -4    0    8    6   -0.000503    0.000000
   -3   -4    0    9    6   -0.000607    0.000000
   -3   -4    0   10    6   -0.001113   -0.000000
   -3   -4    0   11    6   -0.000374    0.000000
   -3   -4    0    1    7   -0.001005    0.000000
   -3   -4    0    2    7    0.000905    0.000000
   -3   -4    0    3    7    0.000063    0.000000
   -3   -4    0    4    7    0.001417    0.000000
   -3   -4    0    5    7    0.001126    0.000000
   -3   -4    0    6    7   -0.000464   -0.000000
   -3   -4    0    7    7   -0.000903   -0.000000
   -3   -4    0    8    7    0.000372   -0.000000
   -3   -4    0    9    7   -0.000409   -0.000000
   -3   -4    0   10    7    0.001199    0.000000
   -3   -4    0   11    7   -0.000638    0.000000
   -3   -4    0    1    8   -0.001108    0.000000
   -3   -4    0    2    8   -0.001873    0.000000
   -3   -4    0    3    8   -0.001776    0.000000
   -3   -4    0    4    8    0.000345   -0.000000
   -3   -4    0    5    8    0.000099    0.000000
   -3   -4    0    6    8   -0.000531    0.000000
   -3   -4    0    7    8    0.000426   -0.000000
   -3   -4    0    8    8   -0.000518    0.000000
   -3   -4    0    9    8   -0.000287    0.000000
   -3   -4    0   10    8    0.000001    0.000000
   -3   -4    0   11    8    0.000016   -0.000000
   -3   -4    0    1    9    0.003469   -0.000000
   -3   -4    0    2    9   -0.000792   -0.000000
   -3   -4    0    3    9    0.000441    0.000000
   -3   -4    0    4    9   -0.002566    0.000000
   -3   -4    0    5    9   -0.001241    0.000000
   -3   -4    0    6    9   -0.000607   -0.000000
   -3   -4    0    7    9    0.001113    0.000000
   -3   -4    0    8    9    0.000374   -0.000000
   -3   -4    0    9    9    0.000007    0.000000
   -3   -4    0   10    9    0.001066   -0.000000
   -3   -4    0   11    9    0.000503    0.000000
   -3   -4    0    1   10   -0.001005    0.000000
   -3   -4    0    2   10   -0.000905    0.000000
   -3   -4    0    3   10   -0.000063   -0.000000
   -3   -4    0    4   10    0.001417    0.000000
   -3   -4    0    5   10    0.001126    0.000000
   -3   -4    0    6   10    0.000409    0.000000
   -3   -4    0    7   10    0.001199    0.000000
   -3   -4    0    8   10   -0.000638    0.000000
   -3   -4    0    9   10    0.000464    0.000000
   -3   -4    0   10   10   -0.000903   -0.000000
   -3   -4    0   11   10    0.000372   -0.000000
   -3   -4    0    1   11   -0.001108   -0.000000
   -3   -4    0    2   11    0.001874    0.000000
   -3   -4    0    3   11    0.001776   -0.000000
   -3   -4    0    4   11    0.000345   -0.000000
   -3   -4    0    5   11    0.000099    0.000000
   -3   -4    0    6   11    0.000287    0.000000
   -3   -4    0    7   11    0.000001    0.000000
   -3   -4    0    8   11    0.000016   -0.000000
   -3   -4    0    9   11    0.000531   -0.000000
   -3   -4    0   10   11    0.000426   -0.000000
   -3   -4    0   11   11   -0.000518    0.000000
   -3   -3    0    1    1   -0.010192   -0.000000
   -3   -3    0    2    1    0.000000    0.000000
   -3   -3    0    3    1    0.000000    0.000000
   -3   -3    0    4    1    0.008043    0.000000
   -3   -3    0    5    1   -0.003057    0.000000
   -3   -3    0    6    1   -0.002331    0.000000
   -3   -3    0    7    1    0.000587    0.000000
   -3   -3    0    8    1   -0.001579   -0.000000
   -3   -3    0    9    1    0.002331   -0.000000
   -3   -3    0   10    1    0.000587    0.000000
   -3   -3    0   11    1   -0.001579   -0.000000
   -3   -3    0    1    2   -0.000000    0.000000
   -3   -3    0    2    2    0.003493    0.000000
   -3   -3    0    3    2    0.003140    0.000000
   -3   -3    0    4    2    0.000000    0.000000
   -3   -3    0    5    2   -0.000000    0.000000
   -3   -3    0    6    2    0.000018    0.000000
   -3   -3    0    7    2   -0.002469   -0.000000
   -3   -3    0    8    2    0.000469    0.000000
   -3   -3    0    9    2    0.000018    0.000000
   -3   -3    0   10    2    0.002469    0.000000
   -3   -3    0   11    2   -0.000469   -0.000000
   -3   -3    0    1    3    0.000000    0.000000
   -3   -3    0    2    3   -0.003140    0.000000
   -3   -3    0    3    3   -0.000846   -0.000000
   -3   -3    0    4    3   -0.000000   -0.000000
   -3   -3    0    5    3    0.000000    0.000000
   -3   -3    0    6    3   -0.000450    0.000000
   -3   -3    0    7    3    0.001562   -0.000000
   -3   -3    0    8    3   -0.000128    0.000000
   -3   -3    0    9    3   -0.000450   -0.000000
   -3   -3    0   10    3   -0.001562    0.000000
   -3   -3    0   11    3    0.000128   -0.000000
   -3   -3    0    1    4    0.008043    0.000000
   -3   -3    0    2    4   -0.000000   -0.000000
   -3   -3    0    3    4   -0.000000   -0.000000
   -3   -3    0    4    4   -0.011495   -0.000000
   -3   -3    0    5    4    0.006842    0.000000
   -3   -3    0    6    4    0.003885   -0.000000
   -3   -3    0    7    4   -0.001069   -0.000000
   -3   -3    0    8    4    0.001384   -0.000000
   -3   -3    0    9    4   -0.003885    0.000000
   -3   -3    0   10    4   -0.001069    0.000000
   -3   -3    0   11    4    0.001384    0.000000
   -3   -3    0    1    5    0.003057    0.000000
   -3   -3    0    2    5   -0.000000    0.000000
   -3   -3    0    3    5   -0.000000   -0.000000
   -3   -3    0    4    5   -0.006842    0.000000
   -3   -3    0    5    5    0.003259    0.000000
   -3   -3    0    6    5    0.001550   -0.000000
   -3   -3    0    7    5   -0.001163    0.000000
   -3   -3    0    8    5    0.000432    0.000000
   -3   -3    0    9    5   -0.001550    0.000000
   -3   -3    0   10    5   -0.001163    0.000000
   -3   -3    0   11    5    0.000432    0.000000
   -3   -3    0    1    6    0.007140   -0.000000
   -3   -3    0    2    6    0.005031   -0.000000
   -3   -3    0    3    6    0.002352    0.000000
   -3   -3    0    4    6   -0.015011   -0.000000
   -3   -3    0    5    6    0.000628   -0.000000
   -3   -3    0    6    6    0.002668   -0.000000
   -3   -3    0    7    6    0.001244   -0.000000
   -3   -3    0    8    6    0.001269    0.000000
   -3   -3    0    9    6   -0.000948   -0.000000
   -3   -3    0   10    6    0.002032   -0.000000
   -3   -3    0   11    6    0.000303    0.000000
   -3   -3    0    1    7   -0.008005   -0.000000
   -3   -3    0    2    7   -0.011698    0.000000
   -3   -3    0    3    7   -0.008235   -0.000000
   -3   -3    0    4    7    0.000240    0.000000
   -3   -3    0    5    7   -0.007064   -0.000000
   -3   -3    0    6    7   -0.001244    0.000000
   -3   -3    0    7    7    0.013171    0.000000
   -3   -3    0    8    7   -0.002026    0.000000
   -3   -3    0    9    7    0.002032   -0.000000
   -3   -3    0   10    7    0.001205   -0.000000
   -3   -3    0   11    7   -0.000336   -0.000000
   -3   -3    0    1    8    0.005392    0.000000
   -3   -3    0    2    8   -0.004790    0.000000
   -3   -3    0    3    8   -0.005472   -0.000000
   -3   -3    0    4    8   -0.004636   -0.000000
   -3   -3    0    5    8   -0.001046    0.000000
   -3   -3    0    6    8    0.001269    0.000000
   -3   -3    0    7    8    0.002026    0.000000
   -3   -3    0    8    8   -0.000662   -0.000000
   -3   -3    0    9    8   -0.000303    0.000000
   -3   -3    0   10    8    0.000336   -0.000000
   -3   -3    0   11    8    0.001647    0.000000
   -3   -3    0    1    9   -0.007140    0.000000
   -3   -3    0    2    9    0.005031    0.000000
   -3   -3    0    3    9    0.002352    0.000000
   -3   -3    0    4    9    0.015011    0.000000
   -3   -3    0    5    9   -0.000628    0.000000
   -3   -3    0    6    9   -0.000948    0.000000
   -3   -3    0    7    9   -0.002032    0.000000
   -3   -3    0    8    9   -0.000303   -0.000000
   -3   -3    0    9    9    0.002668   -0.000000
   -3   -3    0   10    9   -0.001244    0.000000
   -3   -3    0   11    9   -0.001269   -0.000000
   -3   -3    0    1   10   -0.008005   -0.000000
   -3   -3    0    2   10    0.011698   -0.000000
   -3   -3    0    3   10    0.008235    0.000000
   -3   -3    0    4   10    0.000240    0.000000
   -3   -3    0    5   10   -0.007064   -0.000000
   -3   -3    0    6   10   -0.002032    0.000000
   -3   -3    0    7   10    0.001205   -0.000000
   -3   -3    0    8   10   -0.000336   -0.000000
   -3   -3    0    9   10    0.001244   -0.000000
   -3   -3    0   10   10    0.013171    0.000000
   -3   -3    0   11   10   -0.002026    0.000000
   -3   -3    0    1   11    0.005392    0.000000
   -3   -3    0    2   11    0.004790   -0.000000
   -3   -3    0    3   11    0.005472    0.000000
   -3   -3    0    4   11   -0.004636   -0.000000
   -3   -3    0    5   11   -0.001046    0.000000
   -3   -3    0    6   11    0.000303   -0.000000
   -3   -3    0    7   11    0.000336   -0.000000
   -3   -3    0    8   11    0.001647    0.000000
   -3   -3    0    9   11   -0.001269   -0.000000
   -3   -3    0   10   11    0.002026    0.000000
   -3   -3    0   11   11   -0.000662   -0.000000
   -3   -2    0    1    1   -0.001443   -0.000000
   -3   -2    0    2    1    0.000000    0.000000
   -3   -2    0    3    1   -0.000000    0.000000
   -3   -2    0    4    1    0.003006    0.000000
   -3   -2    0    5    1   -0.006503    0.000000
   -3   -2    0    6    1   -0.003469    0.000000
   -3   -2    0    7    1    0.001005   -0.000000
   -3   -2    0    8    1   -0.001108   -0.000000
   -3   -2    0    9    1    0.003469    0.000000
   -3   -2    0   10    1    0.001005   -0.000000
   -3   -2    0   11    1   -0.001108   -0.000000
   -3   -2    0    1    2   -0.000000   -0.000000
   -3   -2    0    2    2   -0.000228    0.000000
   -3   -2    0    3    2   -0.004927    0.000000
   -3   -2    0    4    2    0.000000   -0.000000
   -3   -2    0    5    2   -0.000000    0.000000
   -3   -2    0    6    2    0.000792    0.000000
[...]
    4    5    0    9    8   -0.000285    0.000000
    4    5    0   10    8    0.000000   -0.000000
    4    5    0   11    8   -0.000108    0.000000
    4    5    0    1    9   -0.000003    0.000000
    4    5    0    2    9    0.000222   -0.000000
    4    5    0    3    9    0.000045   -0.000000
    4    5    0    4    9    0.000138    0.000000
    4    5    0    5    9   -0.000119    0.000000
    4    5    0    6    9   -0.000244    0.000000
    4    5    0    7    9    0.000000    0.000000
    4    5    0    8    9   -0.000066   -0.000000
    4    5    0    9    9    0.000412   -0.000000
    4    5    0   10    9   -0.000000    0.000000
    4    5    0   11    9   -0.000166   -0.000000
    4    5    0    1   10    0.000048   -0.000000
    4    5    0    2   10   -0.001000   -0.000000
    4    5    0    3   10   -0.000213    0.000000
    4    5    0    4   10   -0.000610    0.000000
    4    5    0    5   10   -0.000527   -0.000000
    4    5    0    6   10    0.000000    0.000000
    4    5    0    7   10    0.001026   -0.000000
    4    5    0    8   10    0.000000   -0.000000
    4    5    0    9   10   -0.000000   -0.000000
    4    5    0   10   10   -0.000270    0.000000
    4    5    0   11   10    0.000000    0.000000
    4    5    0    1   11    0.000026    0.000000
    4    5    0    2   11   -0.000493   -0.000000
    4    5    0    3   11   -0.000352    0.000000
    4    5    0    4   11   -0.000069   -0.000000
    4    5    0    5   11    0.000471    0.000000
    4    5    0    6   11    0.000285   -0.000000
    4    5    0    7   11    0.000000   -0.000000
    4    5    0    8   11   -0.000108    0.000000
    4    5    0    9   11   -0.000462   -0.000000
    4    5    0   10   11   -0.000000    0.000000
    4    5    0   11   11    0.000188   -0.000000
    5    2    0    1    1   -0.000785   -0.000000
    5    2    0    2    1   -0.000000   -0.000000
    5    2    0    3    1    0.000000   -0.000000
    5    2    0    4    1    0.000509   -0.000000
    5    2    0    5    1   -0.000272    0.000000
    5    2    0    6    1   -0.000675    0.000000
    5    2    0    7    1   -0.000949   -0.000000
    5    2    0    8    1    0.000313   -0.000000
    5    2    0    9    1    0.000675    0.000000
    5    2    0   10    1   -0.000949   -0.000000
    5    2    0   11    1    0.000313   -0.000000
    5    2    0    1    2    0.000000   -0.000000
    5    2    0    2    2    0.000055    0.000000
    5    2    0    3    2   -0.000289    0.000000
    5    2    0    4    2    0.000000   -0.000000
    5    2    0    5    2    0.000000    0.000000
    5    2    0    6    2    0.000046   -0.000000
    5    2    0    7    2   -0.000024    0.000000
    5    2    0    8    2    0.000446    0.000000
    5    2    0    9    2    0.000046   -0.000000
    5    2    0   10    2    0.000024   -0.000000
    5    2    0   11    2   -0.000446   -0.000000
    5    2    0    1    3   -0.000000   -0.000000
    5    2    0    2    3   -0.000194    0.000000
    5    2    0    3    3    0.000364   -0.000000
    5    2    0    4    3    0.000000   -0.000000
    5    2    0    5    3   -0.000000   -0.000000
    5    2    0    6    3    0.000023    0.000000
    5    2    0    7    3   -0.000208   -0.000000
    5    2    0    8    3   -0.000549   -0.000000
    5    2    0    9    3    0.000023    0.000000
    5    2    0   10    3    0.000208    0.000000
    5    2    0   11    3    0.000549   -0.000000
    5    2    0    1    4    0.001485    0.000000
    5    2    0    2    4    0.000000    0.000000
    5    2    0    3    4   -0.000000    0.000000
    5    2    0    4    4    0.000071    0.000000
    5    2    0    5    4    0.001126    0.000000
    5    2    0    6    4    0.000491   -0.000000
    5    2    0    7    4    0.000723    0.000000
    5    2    0    8    4   -0.000543   -0.000000
    5    2    0    9    4   -0.000491    0.000000
    5    2    0   10    4    0.000723    0.000000
    5    2    0   11    4   -0.000543   -0.000000
    5    2    0    1    5   -0.000912   -0.000000
    5    2    0    2    5   -0.000000   -0.000000
    5    2    0    3    5   -0.000000    0.000000
    5    2    0    4    5   -0.000538   -0.000000
    5    2    0    5    5   -0.001144    0.000000
    5    2    0    6    5   -0.001139    0.000000
    5    2    0    7    5   -0.001040    0.000000
    5    2    0    8    5    0.000884    0.000000
    5    2    0    9    5    0.001139    0.000000
    5    2    0   10    5   -0.001040   -0.000000
    5    2    0   11    5    0.000884    0.000000
    5    2    0    1    6   -0.000851   -0.000000
    5    2    0    2    6    0.000084    0.000000
    5    2    0    3    6    0.000056    0.000000
    5    2    0    4    6   -0.000709   -0.000000
    5    2    0    5    6   -0.001114    0.000000
    5    2    0    6    6   -0.000428    0.000000
    5    2    0    7    6   -0.000400    0.000000
    5    2    0    8    6    0.000497   -0.000000
    5    2    0    9    6    0.000477    0.000000
    5    2    0   10    6   -0.000451   -0.000000
    5    2    0   11    6    0.000521   -0.000000
    5    2    0    1    7    0.000215   -0.000000
    5    2    0    2    7    0.000016   -0.000000
    5    2    0    3    7    0.000294    0.000000
    5    2    0    4    7    0.000027    0.000000
    5    2    0    5    7    0.000083    0.000000
    5    2    0    6    7    0.000198   -0.000000
    5    2    0    7    7    0.000234   -0.000000
    5    2    0    8    7   -0.000542   -0.000000
    5    2    0    9    7   -0.000149    0.000000
    5    2    0   10    7    0.000301    0.000000
    5    2    0   11    7    0.000208    0.000000
    5    2    0    1    8    0.000091   -0.000000
    5    2    0    2    8    0.000297    0.000000
    5    2    0    3    8   -0.000318    0.000000
    5    2    0    4    8    0.000039   -0.000000
    5    2    0    5    8   -0.000019    0.000000
    5    2    0    6    8   -0.000008   -0.000000
    5    2    0    7    8   -0.000409   -0.000000
    5    2    0    8    8    0.000503    0.000000
    5    2    0    9    8    0.000097   -0.000000
    5    2    0   10    8    0.000014    0.000000
    5    2    0   11    8   -0.000409   -0.000000
    5    2    0    1    9    0.000851   -0.000000
    5    2    0    2    9    0.000084    0.000000
    5    2    0    3    9    0.000056   -0.000000
    5    2    0    4    9    0.000709    0.000000
    5    2    0    5    9    0.001114    0.000000
    5    2    0    6    9    0.000477   -0.000000
    5    2    0    7    9    0.000451   -0.000000
    5    2    0    8    9   -0.000521    0.000000
    5    2    0    9    9   -0.000428    0.000000
    5    2    0   10    9    0.000400   -0.000000
    5    2    0   11    9   -0.000497    0.000000
    5    2    0    1   10    0.000215    0.000000
    5    2    0    2   10   -0.000016    0.000000
    5    2    0    3   10   -0.000294    0.000000
    5    2    0    4   10    0.000027    0.000000
    5    2    0    5   10    0.000083    0.000000
    5    2    0    6   10    0.000149   -0.000000
    5    2    0    7   10    0.000301    0.000000
    5    2    0    8   10    0.000208    0.000000
    5    2    0    9   10   -0.000198    0.000000
    5    2    0   10   10    0.000234   -0.000000
    5    2    0   11   10   -0.000542   -0.000000
    5    2    0    1   11    0.000091   -0.000000
    5    2    0    2   11   -0.000297   -0.000000
    5    2    0    3   11    0.000318   -0.000000
    5    2    0    4   11    0.000039    0.000000
    5    2    0    5   11   -0.000019    0.000000
    5    2    0    6   11   -0.000097   -0.000000
    5    2    0    7   11    0.000014    0.000000
    5    2    0    8   11   -0.000409   -0.000000
    5    2    0    9   11    0.000008    0.000000
    5    2    0   10   11   -0.000409   -0.000000
    5    2    0   11   11    0.000503    0.000000
    5    3    0    1    1   -0.000692    0.000000
    5    3    0    2    1   -0.000000    0.000000
    5    3    0    3    1   -0.000000    0.000000
    5    3    0    4    1   -0.000122   -0.000000
    5    3    0    5    1   -0.000562    0.000000
    5    3    0    6    1   -0.000696    0.000000
    5    3    0    7    1   -0.000781    0.000000
    5    3    0    8    1    0.000633    0.000000
    5    3    0    9    1    0.000696    0.000000
    5    3    0   10    1   -0.000781   -0.000000
    5    3    0   11    1    0.000633    0.000000
    5    3    0    1    2    0.000000   -0.000000
    5    3    0    2    2    0.000497   -0.000000
    5    3    0    3    2    0.000058   -0.000000
    5    3    0    4    2   -0.000000   -0.000000
    5    3    0    5    2    0.000000    0.000000
    5    3    0    6    2    0.000039   -0.000000
    5    3    0    7    2   -0.000537    0.000000
    5    3    0    8    2   -0.000480   -0.000000
    5    3    0    9    2    0.000039   -0.000000
    5    3    0   10    2    0.000537   -0.000000
    5    3    0   11    2    0.000480    0.000000
    5    3    0    1    3   -0.000000    0.000000
    5    3    0    2    3   -0.000038   -0.000000
    5    3    0    3    3   -0.000077    0.000000
    5    3    0    4    3    0.000000   -0.000000
    5    3    0    5    3    0.000000   -0.000000
    5    3    0    6    3   -0.000058   -0.000000
    5    3    0    7    3    0.000164   -0.000000
    5    3    0    8    3   -0.000058   -0.000000
    5    3    0    9    3   -0.000058    0.000000
    5    3    0   10    3   -0.000164   -0.000000
    5    3    0   11    3    0.000058    0.000000
    5    3    0    1    4    0.000080   -0.000000
    5    3    0    2    4   -0.000000    0.000000
    5    3    0    3    4   -0.000000    0.000000
    5    3    0    4    4   -0.000564   -0.000000
    5    3    0    5    4   -0.000266   -0.000000
    5    3    0    6    4    0.000698    0.000000
    5    3    0    7    4    0.000680   -0.000000
    5    3    0    8    4   -0.000160    0.000000
    5    3    0    9    4   -0.000698   -0.000000
    5    3    0   10    4    0.000680   -0.000000
    5    3    0   11    4   -0.000160   -0.000000
    5    3    0    1    5   -0.001879   -0.000000
    5    3    0    2    5   -0.000000   -0.000000
    5    3    0    3    5    0.000000    0.000000
    5    3    0    4    5    0.001377   -0.000000
    5    3    0    5    5   -0.000605    0.000000
    5    3    0    6    5   -0.001017    0.000000
    5    3    0    7    5   -0.001455   -0.000000
    5    3    0    8    5    0.000505   -0.000000
    5    3    0    9    5    0.001017   -0.000000
    5    3    0   10    5   -0.001455   -0.000000
    5    3    0   11    5    0.000505   -0.000000
    5    3    0    1    6   -0.000927   -0.000000
    5    3    0    2    6    0.000000    0.000000
    5    3    0    3    6   -0.000112   -0.000000
    5    3    0    4    6    0.001224   -0.000000
    5    3    0    5    6    0.000000    0.000000
    5    3    0    6    6   -0.000405   -0.000000
    5    3    0    7    6   -0.000663    0.000000
    5    3    0    8    6    0.000079    0.000000
    5    3    0    9    6    0.000467    0.000000
    5    3    0   10    6   -0.000686    0.000000
    5    3    0   11    6    0.000099    0.000000
    5    3    0    1    7   -0.000000    0.000000
    5    3    0    2    7   -0.000483   -0.000000
    5    3    0    3    7    0.000000    0.000000
    5    3    0    4    7    0.000000   -0.000000
    5    3    0    5    7    0.000052   -0.000000
    5    3    0    6    7    0.000078   -0.000000
    5    3    0    7    7    0.000832    0.000000
    5    3    0    8    7   -0.000051    0.000000
    5    3    0    9    7   -0.000183    0.000000
    5    3    0   10    7   -0.000338   -0.000000
    5    3    0   11    7   -0.000337   -0.000000
    5    3    0    1    8   -0.000283    0.000000
    5    3    0    2    8   -0.000000   -0.000000
    5    3    0    3    8    0.000188    0.000000
    5    3    0    4    8    0.000124    0.000000
    5    3    0    5    8   -0.000000   -0.000000
    5    3    0    6    8   -0.000170    0.000000
    5    3    0    7    8   -0.000227    0.000000
    5    3    0    8    8   -0.000117   -0.000000
    5    3    0    9    8    0.000103   -0.000000
    5    3    0   10    8   -0.000182   -0.000000
    5    3    0   11    8    0.000222    0.000000
    5    3    0    1    9    0.000927   -0.000000
    5    3    0    2    9    0.000000    0.000000
    5    3    0    3    9   -0.000112   -0.000000
    5    3    0    4    9   -0.001224   -0.000000
    5    3    0    5    9   -0.000000   -0.000000
    5    3    0    6    9    0.000467   -0.000000
    5    3    0    7    9    0.000686   -0.000000
    5    3    0    8    9   -0.000099    0.000000
    5    3    0    9    9   -0.000405    0.000000
    5    3    0   10    9    0.000663   -0.000000
    5    3    0   11    9   -0.000079   -0.000000
    5    3    0    1   10   -0.000000    0.000000
    5    3    0    2   10    0.000483    0.000000
    5    3    0    3   10   -0.000000   -0.000000
    5    3    0    4   10    0.000000   -0.000000
    5    3    0    5   10    0.000052    0.000000
    5    3    0    6   10    0.000183   -0.000000
    5    3    0    7   10   -0.000338   -0.000000
    5    3    0    8   10   -0.000337   -0.000000
    5    3    0    9   10   -0.000078    0.000000
    5    3    0   10   10    0.000832    0.000000
    5    3    0   11   10   -0.000051    0.000000
    5    3    0    1   11   -0.000283   -0.000000
    5    3    0    2   11    0.000000    0.000000
    5    3    0    3   11   -0.000188    0.000000
    5    3    0    4   11    0.000124    0.000000
    5    3    0    5   11   -0.000000   -0.000000
    5    3    0    6   11   -0.000103    0.000000
    5    3    0    7   11   -0.000182   -0.000000
    5    3    0    8   11    0.000222    0.000000
    5    3    0    9   11    0.000170   -0.000000
    5    3    0   10   11   -0.000227    0.000000
    5    3    0   11   11   -0.000117   -0.000000
    5    4    0    1    1   -0.000179    0.000000
    5    4    0    2    1    0.000000   -0.000000
    5    4    0    3    1    0.000000   -0.000000
    5    4    0    4    1    0.000888   -0.000000
    5    4    0    5    1    0.000000   -0.000000
    5    4    0    6    1    0.000003    0.000000
    5    4    0    7    1    0.000048    0.000000
    5    4    0    8    1    0.000026   -0.000000
    5    4    0    9    1   -0.000003   -0.000000
    5    4    0   10    1    0.000048    0.000000
    5    4    0   11    1    0.000026   -0.000000
    5    4    0    1    2   -0.000000   -0.000000
    5    4    0    2    2   -0.000367   -0.000000
    5    4    0    3    2    0.000000   -0.000000
    5    4    0    4    2   -0.000000    0.000000
    5    4    0    5    2   -0.000000   -0.000000
    5    4    0    6    2    0.000222   -0.000000
    5    4    0    7    2    0.001000   -0.000000
    5    4    0    8    2    0.000493   -0.000000
    5    4    0    9    2    0.000222    0.000000
    5    4    0   10    2   -0.001000    0.000000
    5    4    0   11    2   -0.000493    0.000000
    5    4    0    1    3    0.000000   -0.000000
    5    4    0    2    3    0.000000   -0.000000
    5    4    0    3    3    0.000130    0.000000
    5    4    0    4    3   -0.000000    0.000000
    5    4    0    5    3   -0.000000    0.000000
    5    4    0    6    3    0.000045   -0.000000
    5    4    0    7    3    0.000213    0.000000
    5    4    0    8    3    0.000352    0.000000
    5    4    0    9    3    0.000045    0.000000
    5    4    0   10    3   -0.000213   -0.000000
    5    4    0   11    3   -0.000352   -0.000000
    5    4    0    1    4   -0.000137   -0.000000
    5    4    0    2    4   -0.000000   -0.000000
    5    4    0    3    4    0.000000   -0.000000
    5    4    0    4    4   -0.000988    0.000000
    5    4    0    5    4   -0.000000   -0.000000
    5    4    0    6    4   -0.000138    0.000000
    5    4    0    7    4   -0.000610   -0.000000
    5    4    0    8    4   -0.000069    0.000000
    5    4    0    9    4    0.000138   -0.000000
    5    4    0   10    4   -0.000610   -0.000000
    5    4    0   11    4   -0.000069    0.000000
    5    4    0    1    5    0.000000   -0.000000
    5    4    0    2    5   -0.000000   -0.000000
    5    4    0    3    5   -0.000000   -0.000000
    5    4    0    4    5   -0.000000   -0.000000
    5    4    0    5    5    0.000641   -0.000000
    5    4    0    6    5    0.000119    0.000000
    5    4    0    7    5   -0.000527   -0.000000
    5    4    0    8    5    0.000471   -0.000000
    5    4    0    9    5   -0.000119   -0.000000
    5    4    0   10    5   -0.000527    0.000000
    5    4    0   11    5    0.000471   -0.000000
    5    4    0    1    6    0.000809   -0.000000
    5    4    0    2    6    0.000248   -0.000000
    5    4    0    3    6    0.000118   -0.000000
    5    4    0    4    6   -0.000966    0.000000
    5    4    0    5    6    0.000621    0.000000
    5    4    0    6    6    0.000412    0.000000
    5    4    0    7    6    0.000000   -0.000000
    5    4    0    8    6    0.000462   -0.000000
    5    4    0    9    6   -0.000244   -0.000000
    5    4    0   10    6    0.000000   -0.000000
    5    4    0   11    6    0.000285    0.000000
    5    4    0    1    7    0.000643   -0.000000
    5    4    0    2    7    0.000898    0.000000
    5    4    0    3    7    0.000335    0.000000
    5    4    0    4    7   -0.000697    0.000000
    5    4    0    5    7    0.000290   -0.000000
    5    4    0    6    7    0.000000    0.000000
    5    4    0    7    7   -0.000270   -0.000000
    5    4    0    8    7   -0.000000   -0.000000
    5    4    0    9    7    0.000000   -0.000000
    5    4    0   10    7    0.001026    0.000000
    5    4    0   11    7    0.000000    0.000000
    5    4    0    1    8    0.000165    0.000000
    5    4    0    2    8    0.000387   -0.000000
    5    4    0    3    8    0.000226   -0.000000
    5    4    0    4    8   -0.000176    0.000000
    5    4    0    5    8    0.000048   -0.000000
    5    4    0    6    8    0.000166   -0.000000
    5    4    0    7    8    0.000000   -0.000000
    5    4    0    8    8    0.000188    0.000000
    5    4    0    9    8   -0.000066    0.000000
    5    4    0   10    8    0.000000    0.000000
    5    4    0   11    8   -0.000108   -0.000000
    5    4    0    1    9   -0.000809    0.000000
    5    4    0    2    9    0.000248    0.000000
    5    4    0    3    9    0.000118    0.000000
    5    4    0    4    9    0.000966   -0.000000
    5    4    0    5    9   -0.000621   -0.000000
    5    4    0    6    9   -0.000244    0.000000
    5    4    0    7    9   -0.000000    0.000000
    5    4    0    8    9   -0.000285   -0.000000
    5    4    0    9    9    0.000412    0.000000
    5    4    0   10    9   -0.000000    0.000000
    5    4    0   11    9   -0.000462    0.000000
    5    4    0    1   10    0.000643   -0.000000
    5    4    0    2   10   -0.000898   -0.000000
    5    4    0    3   10   -0.000335   -0.000000
    5    4    0    4   10   -0.000697   -0.000000
    5    4    0    5   10    0.000290   -0.000000
    5    4    0    6   10   -0.000000    0.000000
    5    4    0    7   10    0.001026    0.000000
    5    4    0    8   10    0.000000    0.000000
    5    4    0    9   10   -0.000000   -0.000000
    5    4    0   10   10   -0.000270   -0.000000
    5    4    0   11   10   -0.000000   -0.000000
    5    4    0    1   11    0.000165    0.000000
    5    4    0    2   11   -0.000387    0.000000
    5    4    0    3   11   -0.000226    0.000000
    5    4    0    4   11   -0.000176   -0.000000
    5    4    0    5   11    0.000048   -0.000000
    5    4    0    6   11    0.000066   -0.000000
    5    4    0    7   11    0.000000    0.000000
    5    4    0    8   11   -0.000108   -0.000000
    5    4    0    9   11   -0.000166    0.000000
    5    4    0   10   11    0.000000   -0.000000
    5    4    0   11   11    0.000188    0.000000
