 
             +---------------------------------------------------+
             |                                                   |
             |                   WANNIER90                       |
             |                                                   |
             +---------------------------------------------------+
             |                                                   |
             |        Welcome to the Maximally-Localized         |
             |        Generalized Wannier Functions code         |
             |            http://www.wannier.org                 |
             |                                                   |
             |  Wannier90 v2.x Authors:                          |
             |    Arash A. Mostofi  (Imperial College London)    |
             |    Giovanni Pizzi    (EPFL)                       |
             |    Ivo Souza         (Universidad del Pais Vasco) |
             |    Jonathan R. Yates (University of Oxford)       |
             |                                                   |
             |  Wannier90 Contributors:                          |
             |    Young-Su Lee       (KIST, S. Korea)            |
             |    Matthew Shelley    (Imperial College London)   |
             |    Nicolas Poilvert   (Penn State University)     |
             |    Raffaello Bianco   (Paris 6 and CNRS)          |
             |    Gabriele Sclauzero (ETH Zurich)                |
             |    David Strubbe (MIT, USA)                       |
             |    Rei Sakuma (Lund University, Sweden)           |
             |    Yusuke Nomura (U. Tokyo, Japan)                |
             |    Takashi Koretsune (Riken, Japan)               |
             |    Yoshiro Nohara (ASMS Co. Ltd., Japan)          |
             |    Ryotaro Arita (Riken, Japan)                   |
             |    Lorenzo Paulatto (UPMC Paris)                  |
             |    Florian Thole (ETH Zurich)                     |
             |    Pablo Garcia Fernandez (Unican, Spain)         |
             |    Dominik Gresch (ETH Zurich)                    |
             |    Samuel Ponce (University of Oxford)            |
             |    Marco Gibertini (EPFL)                         |
             |    Christian Stieger (ETHZ, CH)                   |
             |    Stepan Tsirkin (Universidad del Pais Vasco)    |
             |                                                   |
             |  Wannier77 Authors:                               |
             |    Nicola Marzari    (EPFL)                       |
             |    Ivo Souza         (Universidad del Pais Vasco) |
             |    David Vanderbilt  (Rutgers University)         |
             |                                                   |
             |  Please cite                                      |
             |                                                   |
             |  [ref] "An updated version of Wannier90:          |
             |        A Tool for Obtaining Maximally Localised   |
             |        Wannier Functions", A. A. Mostofi,         |
             |        J. R. Yates, G. Pizzi, Y. S. Lee,          |
             |        I. Souza, D. Vanderbilt and N. Marzari,    |
             |        Comput. Phys. Commun. 185, 2309 (2014)     |
             |        http://dx.doi.org/10.1016/j.cpc.2014.05.003|
             |                                                   |
             |  in any publications arising from the use of      |
             |  this code. For the method please cite            |
             |                                                   |
             |  [ref] "Maximally Localized Generalised Wannier   |
             |         Functions for Composite Energy Bands"     |
             |         N. Marzari and D. Vanderbilt              |
             |         Phys. Rev. B 56 12847 (1997)              |
             |                                                   |
             |  [ref] "Maximally Localized Wannier Functions     |
             |         for Entangled Energy Bands"               |
             |         I. Souza, N. Marzari and D. Vanderbilt    |
             |         Phys. Rev. B 65 035109 (2001)             |
             |                                                   |
             |                                                   |
             | Copyright (c) 1996-2017                           |
             |        Arash A. Mostofi, Jonathan R. Yates,       |
             |        Young-Su Lee, Giovanni Pizzi, Ivo Souza,   |
             |        David Vanderbilt and Nicola Marzari        |
             |                                                   |
             |      Release: 2.1.0+git   13th January 2017       |
             |                                                   |
             | This program is free software; you can            |
             | redistribute it and/or modify it under the terms  |
             | of the GNU General Public License as published by |
             | the Free Software Foundation; either version 2 of |
             | the License, or (at your option) any later version|
             |                                                   |
             | This program is distributed in the hope that it   |
             | will be useful, but WITHOUT ANY WARRANTY; without |
             | even the implied warranty of MERCHANTABILITY or   |
             | FITNESS FOR A PARTICULAR PURPOSE. See the GNU     |
             | General Public License for more details.          |
             |                                                   |
             | You should have received a copy of the GNU General|
             | Public License along with this program; if not,   |
             | write to the Free Software Foundation, Inc.,      |
             | 675 Mass Ave, Cambridge, MA 02139, USA.           |
             |                                                   |
             +---------------------------------------------------+
             |    Execution started on 20Mar2018 at 13:12:17     |
             +---------------------------------------------------+
 
 ******************************************************************************
 * -> Using CODATA 2006 constant values                                       *
 *    (http://physics.nist.gov/cuu/Constants/index.html)                      *
 * -> Using Bohr value from CODATA                                            *
 ******************************************************************************
 

 Running in serial (with parallel executable)
 
                                    ------
                                    SYSTEM
                                    ------
 
                              Lattice Vectors (Ang)
                    a_1     3.400000   0.000000   0.000000
                    a_2     0.000000  29.893856   0.000000
                    a_3    -1.700000   0.000000   2.944486
 
                   Unit Cell Volume:     299.27494  (Ang^3)
 
                        Reciprocal-Space Vectors (Ang^-1)
                    b_1     1.847996   0.000000   1.066941
                    b_2     0.000000   0.210183   0.000000
                    b_3     0.000000   0.000000   2.133882
  
 *----------------------------------------------------------------------------*
 |   Site       Fractional Coordinate          Cartesian Coordinate (Ang)     |
 +----------------------------------------------------------------------------+
 | Mo   1   0.00000   0.05620   0.00000   |    0.00000   1.68000   0.00000    |
 | Mo   2   0.33333   0.27477   0.66667   |   -0.00000   8.21385   1.96299    |
 | S    1   0.33333   0.00000   0.66667   |   -0.00000   0.00000   1.96299    |
 | S    2   0.00000   0.33097   0.00000   |    0.00000   9.89385   0.00000    |
 | S    3   0.00000   0.21857   0.00000   |    0.00000   6.53387   0.00000    |
 | S    4   0.33333   0.11240   0.66667   |   -0.00000   3.36001   1.96299    |
 *----------------------------------------------------------------------------*
  
                                ------------
                                K-POINT GRID
                                ------------
  
             Grid size =  8 x  1 x  8      Total points =   64
  
  
 *---------------------------------- MAIN ------------------------------------*
 |  Number of Wannier Functions               :                22             |
 |  Number of input Bloch states              :                22             |
 |  Output verbosity (1=low, 5=high)          :                 1             |
 |  Timing Level (1=low, 5=high)              :                 1             |
 |  Optimisation (0=memory, 3=speed)          :                 3             |
 |  Length Unit                               :               Ang             |
 |  Post-processing setup (write *.nnkp)      :                 F             |
 |  Using Gamma-only branch of algorithms     :                 F             |
 *----------------------------------------------------------------------------*
 *------------------------------- WANNIERISE ---------------------------------*
 |  Total number of iterations                :               100             |
 |  Number of CG steps before reset           :                 5             |
 |  Trial step length for line search         :             2.000             |
 |  Convergence tolerence                     :         0.100E-06             |
 |  Convergence window                        :                -1             |
 |  Iterations between writing output         :                 1             |
 |  Iterations between backing up to disk     :               100             |
 |  Write r^2_nm to file                      :                 T             |
 |  Write xyz WF centres to file              :                 F             |
 |  Write on-site energies <0n|H|0n> to file  :                 F             |
 |  Use guiding centre to control phases      :                 F             |
 |  Use phases for initial projections        :                 F             |
 *----------------------------------------------------------------------------*
 *-------------------------------- PLOTTING ----------------------------------*
 |  Plotting Hamiltonian in WF basis          :                 T             |
 *----------------------------------------------------------------------------*
 Time to read parameters        0.018 (sec)

 *---------------------------------- K-MESH ----------------------------------*
 +----------------------------------------------------------------------------+
 |                    Distance to Nearest-Neighbour Shells                    |
 |                    ------------------------------------                    |
 |          Shell             Distance (Ang^-1)          Multiplicity         |
 |          -----             -----------------          ------------         |
 |             1                   0.210183                      2            |
 |             2                   0.266735                      6            |
 |             3                   0.339595                     12            |
 |             4                   0.420366                      2            |
 |             5                   0.461999                      6            |
 |             6                   0.497851                     12            |
 |             7                   0.507563                     12            |
 |             8                   0.533470                      6            |
 |             9                   0.573383                     12            |
 |            10                   0.624621                     12            |
 |            11                   0.630549                      2            |
 |            12                   0.679190                     12            |
 +----------------------------------------------------------------------------+
 | The b-vectors are chosen automatically                                     |
 | The following shells are used:   1,  2                                     |
 +----------------------------------------------------------------------------+
 |                        Shell   # Nearest-Neighbours                        |
 |                        -----   --------------------                        |
 |                          1               2                                 |
 |                          2               6                                 |
 +----------------------------------------------------------------------------+
 | Completeness relation is fully satisfied [Eq. (B1), PRB 56, 12847 (1997)]  |
 +----------------------------------------------------------------------------+
 |                  b_k Vectors (Ang^-1) and Weights (Ang^2)                  |
 |                  ----------------------------------------                  |
 |            No.         b_k(x)      b_k(y)      b_k(z)        w_b           |
 |            ---        --------------------------------     --------        |
 |             1         0.000000    0.210183    0.000000    11.318116        |
 |             2         0.000000   -0.210183    0.000000    11.318116        |
 |             3         0.230999    0.000000    0.133368     4.685091        |
 |             4        -0.230999    0.000000    0.133368     4.685091        |
 |             5         0.000000    0.000000   -0.266735     4.685091        |
 |             6        -0.230999    0.000000   -0.133368     4.685091        |
 |             7         0.230999    0.000000   -0.133368     4.685091        |
 |             8         0.000000    0.000000    0.266735     4.685091        |
 +----------------------------------------------------------------------------+
 |                           b_k Directions (Ang^-1)                          |
 |                           -----------------------                          |
 |            No.           x           y           z                         |
 |            ---        --------------------------------                     |
 |             1         0.000000    0.210183    0.000000                     |
 |             2         0.230999    0.000000    0.133368                     |
 |             3        -0.230999    0.000000    0.133368                     |
 |             4         0.000000    0.000000   -0.266735                     |
 +----------------------------------------------------------------------------+
  
 Time to get kmesh              0.038 (sec)
 *============================================================================*
 |                              MEMORY ESTIMATE                               |
 |         Maximum RAM allocated during each phase of the calculation         |
 *============================================================================*
 |                            Wannierise:            9.96 Mb                  |
 |                          plot_wannier:            9.96 Mb                  |
 *----------------------------------------------------------------------------*
  
 Starting a new Wannier90 calculation ...


 Reading overlaps from wannier90.mmn    : File generated by VASP: MoS2_dl

 Reading projections from wannier90.amn : File generated by VASP: MoS2_dl

 Time to read overlaps          0.407 (sec)

 Writing checkpoint file wannier90.chk... done

 
 *------------------------------- WANNIERISE ---------------------------------*
 +--------------------------------------------------------------------+<-- CONV
 | Iter  Delta Spread     RMS Gradient      Spread (Ang^2)      Time  |<-- CONV
 +--------------------------------------------------------------------+<-- CONV
 
 ------------------------------------------------------------------------------
 Initial State
  WF centre and spread    1  ( -0.000000,  1.679955, -0.081975 )     1.49297488
  WF centre and spread    2  ( -0.000000,  1.680072,  0.076582 )     1.51561800
  WF centre and spread    3  ( -0.000000,  1.679632,  0.016139 )     1.49655941
  WF centre and spread    4  ( -0.000000,  1.679888,  0.001154 )     1.46076997
  WF centre and spread    5  ( -0.000001,  1.679591, -0.016670 )     1.50304713
  WF centre and spread    6  ( -0.000001,  8.213897,  2.044966 )     1.49295301
  WF centre and spread    7  ( -0.000001,  8.213779,  1.886410 )     1.51559395
  WF centre and spread    8  ( -0.000001,  8.214228,  1.946852 )     1.49652099
  WF centre and spread    9  ( -0.000001,  8.213965,  1.961838 )     1.46075110
  WF centre and spread   10  ( -0.000001,  8.214270,  1.979662 )     1.50300759
  WF centre and spread   11  ( -0.000001,  0.084722,  1.942877 )     1.83850031
  WF centre and spread   12  ( -0.000000,  0.087165,  1.985569 )     1.86091461
  WF centre and spread   13  ( -0.000000, -0.026948,  1.962344 )     1.94937946
  WF centre and spread   14  ( -0.000000,  9.809127,  0.020115 )     1.83848407
  WF centre and spread   15  ( -0.000001,  9.806684, -0.022577 )     1.86089842
  WF centre and spread   16  ( -0.000001,  9.920800,  0.000648 )     1.94934137
  WF centre and spread   17  ( -0.000000,  6.616437,  0.019393 )     1.84297171
  WF centre and spread   18  ( -0.000001,  6.618862, -0.021861 )     1.86522270
  WF centre and spread   19  ( -0.000001,  6.516428,  0.000663 )     1.98810159
  WF centre and spread   20  ( -0.000001,  3.277459,  1.943598 )     1.84294841
  WF centre and spread   21  ( -0.000000,  3.275033,  1.984854 )     1.86519852
  WF centre and spread   22  ( -0.000000,  3.377440,  1.962328 )     1.98816093
  Sum of centres and spreads ( -0.000014,108.832488, 21.592908 )    37.62791814
 
      0     0.376E+02     0.0000000000       37.6279235134       0.00  <-- CONV
        O_D=      0.0767482 O_OD=      4.3965175 O_TOT=     37.6279235 <-- SPRD
 ------------------------------------------------------------------------------
 Cycle:      1
  WF centre and spread    1  ( -0.000000,  1.679634, -0.089729 )     1.44133147
  WF centre and spread    2  ( -0.000000,  1.679922,  0.084462 )     1.46761591
  WF centre and spread    3  ( -0.000000,  1.679131,  0.018715 )     1.45648706
  WF centre and spread    4  ( -0.000000,  1.679144,  0.001951 )     1.40356579
  WF centre and spread    5  ( -0.000001,  1.679120, -0.019453 )     1.45738302
  WF centre and spread    6  ( -0.000001,  8.214218,  2.052720 )     1.44130785
  WF centre and spread    7  ( -0.000001,  8.213929,  1.878531 )     1.46758927
  WF centre and spread    8  ( -0.000001,  8.214732,  1.944277 )     1.45644573
  WF centre and spread    9  ( -0.000001,  8.214709,  1.961040 )     1.40354696
  WF centre and spread   10  ( -0.000001,  8.214743,  1.982444 )     1.45734202
  WF centre and spread   11  ( -0.000001,  0.073375,  1.944129 )     1.75155535
  WF centre and spread   12  ( -0.000000,  0.074979,  1.983393 )     1.76489221
  WF centre and spread   13  ( -0.000000, -0.033744,  1.963017 )     1.86493159
  WF centre and spread   14  ( -0.000000,  9.820474,  0.018863 )     1.75154292
  WF centre and spread   15  ( -0.000001,  9.818870, -0.020401 )     1.76487994
  WF centre and spread   16  ( -0.000001,  9.927596, -0.000026 )     1.86490030
  WF centre and spread   17  ( -0.000000,  6.605699,  0.018176 )     1.75401211
  WF centre and spread   18  ( -0.000001,  6.607276, -0.019734 )     1.76727110
  WF centre and spread   19  ( -0.000001,  6.511444,  0.000013 )     1.88843088
  WF centre and spread   20  ( -0.000001,  3.288196,  1.944815 )     1.75399021
  WF centre and spread   21  ( -0.000000,  3.286619,  1.982726 )     1.76724807
  WF centre and spread   22  ( -0.000000,  3.382423,  1.962978 )     1.88847651
  Sum of centres and spreads ( -0.000014,108.832490, 21.592908 )    36.03474628
 
      1    -0.159E+01     1.5435442532       36.0347516516       0.03  <-- CONV
        O_D=      0.0410934 O_OD=      2.8390004 O_TOT=     36.0347517 <-- SPRD
 Delta: O_D= -0.3565479E-01 O_OD= -0.1557517E+01 O_TOT= -0.1593172E+01 <-- DLTA
 ------------------------------------------------------------------------------
 Cycle:      2
  WF centre and spread    1  ( -0.000000,  1.679699, -0.095276 )     1.44148891
  WF centre and spread    2  ( -0.000000,  1.679893,  0.089393 )     1.47285897
  WF centre and spread    3  ( -0.000000,  1.679140,  0.020192 )     1.46228541
  WF centre and spread    4  ( -0.000000,  1.679372,  0.003109 )     1.39610704
  WF centre and spread    5  ( -0.000000,  1.679158, -0.020914 )     1.46489141
  WF centre and spread    6  ( -0.000001,  8.214153,  2.058267 )     1.44146334
  WF centre and spread    7  ( -0.000001,  8.213959,  1.873600 )     1.47282964
  WF centre and spread    8  ( -0.000001,  8.214724,  1.942800 )     1.46223875
  WF centre and spread    9  ( -0.000001,  8.214481,  1.959882 )     1.39608777
  WF centre and spread   10  ( -0.000001,  8.214706,  1.983905 )     1.46484566
  WF centre and spread   11  ( -0.000001,  0.066825,  1.944918 )     1.70192432
  WF centre and spread   12  ( -0.000000,  0.067569,  1.982128 )     1.70765489
  WF centre and spread   13  ( -0.000000, -0.037457,  1.963259 )     1.80732673
  WF centre and spread   14  ( -0.000000,  9.827024,  0.018074 )     1.70191163
  WF centre and spread   15  ( -0.000001,  9.826280, -0.019137 )     1.70764424
  WF centre and spread   16  ( -0.000001,  9.931310, -0.000268 )     1.80729879
  WF centre and spread   17  ( -0.000000,  6.599307,  0.017400 )     1.70508627
  WF centre and spread   18  ( -0.000001,  6.600052, -0.018447 )     1.71081541
  WF centre and spread   19  ( -0.000001,  6.507931, -0.000240 )     1.82918760
  WF centre and spread   20  ( -0.000001,  3.294588,  1.945591 )     1.70506902
  WF centre and spread   21  ( -0.000000,  3.293843,  1.981438 )     1.71079643
  WF centre and spread   22  ( -0.000000,  3.385934,  1.963231 )     1.82922770
  Sum of centres and spreads ( -0.000014,108.832489, 21.592908 )    35.39903995
 
      2    -0.636E+00     1.0995109781       35.3990453295       0.06  <-- CONV
        O_D=      0.0368137 O_OD=      2.2075739 O_TOT=     35.3990453 <-- SPRD
 Delta: O_D= -0.4279785E-02 O_OD= -0.6314265E+00 O_TOT= -0.6357063E+00 <-- DLTA
 ------------------------------------------------------------------------------
 Cycle:      3
  WF centre and spread    1  ( -0.000000,  1.679647, -0.099063 )     1.45154121
  WF centre and spread    2  ( -0.000000,  1.679835,  0.093785 )     1.48220482
  WF centre and spread    3  ( -0.000000,  1.679057,  0.021772 )     1.47793555
  WF centre and spread    4  ( -0.000000,  1.679263,  0.003412 )     1.40224989
  WF centre and spread    5  ( -0.000000,  1.679084, -0.022115 )     1.48218109
  WF centre and spread    6  ( -0.000001,  8.214205,  2.062053 )     1.45151545
  WF centre and spread    7  ( -0.000001,  8.214016,  1.869208 )     1.48217496
  WF centre and spread    8  ( -0.000001,  8.214808,  1.941219 )     1.47788568
  WF centre and spread    9  ( -0.000001,  8.214590,  1.959580 )     1.40223162
  WF centre and spread   10  ( -0.000001,  8.214781,  1.985107 )     1.48213242
  WF centre and spread   11  ( -0.000001,  0.063288,  1.945134 )     1.66822547
  WF centre and spread   12  ( -0.000000,  0.063462,  1.981280 )     1.66933558
  WF centre and spread   13  ( -0.000000, -0.038497,  1.963307 )     1.76704854
  WF centre and spread   14  ( -0.000000,  9.830561,  0.017858 )     1.66821042
  WF centre and spread   15  ( -0.000001,  9.830387, -0.018289 )     1.66932605
  WF centre and spread   16  ( -0.000001,  9.932349, -0.000316 )     1.76702425
  WF centre and spread   17  ( -0.000000,  6.596048,  0.017161 )     1.66982462
  WF centre and spread   18  ( -0.000001,  6.596246, -0.017588 )     1.67113077
  WF centre and spread   19  ( -0.000001,  6.507186, -0.000301 )     1.78582798
  WF centre and spread   20  ( -0.000001,  3.297846,  1.945830 )     1.66980876
  WF centre and spread   21  ( -0.000000,  3.297648,  1.980579 )     1.67111385
  WF centre and spread   22  ( -0.000000,  3.386679,  1.963292 )     1.78586591
  Sum of centres and spreads ( -0.000014,108.832490, 21.592908 )    35.05479490
 
      3    -0.344E+00     0.8675860052       35.0548002744       0.08  <-- CONV
        O_D=      0.0333170 O_OD=      1.8668255 O_TOT=     35.0548003 <-- SPRD
 Delta: O_D= -0.3496616E-02 O_OD= -0.3407484E+00 O_TOT= -0.3442451E+00 <-- DLTA
 ------------------------------------------------------------------------------
 Cycle:      4
  WF centre and spread    1  ( -0.000000,  1.679543, -0.101067 )     1.45977758
  WF centre and spread    2  ( -0.000000,  1.679769,  0.096458 )     1.48862731
  WF centre and spread    3  ( -0.000000,  1.678999,  0.023015 )     1.49156227
  WF centre and spread    4  ( -0.000000,  1.679068,  0.003285 )     1.40989178
  WF centre and spread    5  ( -0.000000,  1.679020, -0.023043 )     1.49516093
  WF centre and spread    6  ( -0.000001,  8.214309,  2.064057 )     1.45975065
  WF centre and spread    7  ( -0.000001,  8.214082,  1.866536 )     1.48859645
  WF centre and spread    8  ( -0.000001,  8.214867,  1.939977 )     1.49151127
  WF centre and spread    9  ( -0.000001,  8.214784,  1.959707 )     1.40987236
  WF centre and spread   10  ( -0.000001,  8.214846,  1.986034 )     1.49511042
  WF centre and spread   11  ( -0.000001,  0.061794,  1.945046 )     1.64698963
  WF centre and spread   12  ( -0.000000,  0.061766,  1.981004 )     1.64607844
  WF centre and spread   13  ( -0.000000, -0.038349,  1.963283 )     1.74453991
  WF centre and spread   14  ( -0.000000,  9.832055,  0.017946 )     1.64697812
  WF centre and spread   15  ( -0.000001,  9.832082, -0.018013 )     1.64607046
  WF centre and spread   16  ( -0.000001,  9.932201, -0.000291 )     1.74451590
  WF centre and spread   17  ( -0.000000,  6.594775,  0.017230 )     1.65013733
  WF centre and spread   18  ( -0.000001,  6.594764, -0.017296 )     1.64926466
  WF centre and spread   19  ( -0.000001,  6.507645, -0.000273 )     1.76336713
  WF centre and spread   20  ( -0.000001,  3.299119,  1.945761 )     1.65012211
  WF centre and spread   21  ( -0.000000,  3.299130,  1.980288 )     1.64924935
  WF centre and spread   22  ( -0.000000,  3.386220,  1.963264 )     1.76340596
  Sum of centres and spreads ( -0.000014,108.832489, 21.592908 )    34.89058002
 
      4    -0.164E+00     0.7076294495       34.8905853981       0.11  <-- CONV
        O_D=      0.0326835 O_OD=      1.7032441 O_TOT=     34.8905854 <-- SPRD
 Delta: O_D= -0.6335156E-03 O_OD= -0.1635814E+00 O_TOT= -0.1642149E+00 <-- DLTA
 ------------------------------------------------------------------------------
 Cycle:      5
  WF centre and spread    1  ( -0.000000,  1.679498, -0.101837 )     1.46379468
  WF centre and spread    2  ( -0.000000,  1.679741,  0.097507 )     1.49209531
  WF centre and spread    3  ( -0.000000,  1.678961,  0.023677 )     1.49864802
  WF centre and spread    4  ( -0.000000,  1.678989,  0.003169 )     1.41436654
  WF centre and spread    5  ( -0.000000,  1.678974, -0.023545 )     1.50091903
  WF centre and spread    6  ( -0.000001,  8.214354,  2.064826 )     1.46376675
  WF centre and spread    7  ( -0.000001,  8.214111,  1.865486 )     1.49206355
  WF centre and spread    8  ( -0.000001,  8.214905,  1.939315 )     1.49859675
  WF centre and spread    9  ( -0.000001,  8.214863,  1.959823 )     1.41434634
  WF centre and spread   10  ( -0.000001,  8.214892,  1.986536 )     1.50086777
  WF centre and spread   11  ( -0.000001,  0.061229,  1.944939 )     1.63753868
  WF centre and spread   12  ( -0.000000,  0.061159,  1.980980 )     1.63594095
  WF centre and spread   13  ( -0.000000, -0.038093,  1.963265 )     1.73613376
  WF centre and spread   14  ( -0.000000,  9.832620,  0.018053 )     1.63752994
  WF centre and spread   15  ( -0.000001,  9.832690, -0.017989 )     1.63593374
  WF centre and spread   16  ( -0.000001,  9.931946, -0.000273 )     1.73610992
  WF centre and spread   17  ( -0.000000,  6.594294,  0.017330 )     1.64164051
  WF centre and spread   18  ( -0.000001,  6.594233, -0.017271 )     1.64007786
  WF centre and spread   19  ( -0.000001,  6.507965, -0.000253 )     1.75494171
  WF centre and spread   20  ( -0.000001,  3.299600,  1.945661 )     1.64162581
  WF centre and spread   21  ( -0.000000,  3.299661,  1.980263 )     1.64006309
  WF centre and spread   22  ( -0.000000,  3.385900,  1.963245 )     1.75498078
  Sum of centres and spreads ( -0.000014,108.832489, 21.592908 )    34.83198147
 
      5    -0.586E-01     0.4522886116       34.8319868405       0.14  <-- CONV
        O_D=      0.0330143 O_OD=      1.6443148 O_TOT=     34.8319868 <-- SPRD
 Delta: O_D=  0.3307794E-03 O_OD= -0.5892934E-01 O_TOT= -0.5859856E-01 <-- DLTA
 ------------------------------------------------------------------------------
 Cycle:      6
  WF centre and spread    1  ( -0.000000,  1.679480, -0.102128 )     1.46523052
  WF centre and spread    2  ( -0.000000,  1.679724,  0.097855 )     1.49350849
  WF centre and spread    3  ( -0.000000,  1.678936,  0.023950 )     1.50200328
  WF centre and spread    4  ( -0.000000,  1.678972,  0.003126 )     1.41634053
  WF centre and spread    5  ( -0.000000,  1.678941, -0.023751 )     1.50342108
  WF centre and spread    6  ( -0.000001,  8.214372,  2.065118 )     1.46520247
  WF centre and spread    7  ( -0.000001,  8.214128,  1.865138 )     1.49347662
  WF centre and spread    8  ( -0.000001,  8.214930,  1.939041 )     1.50195204
  WF centre and spread    9  ( -0.000001,  8.214880,  1.959866 )     1.41632035
  WF centre and spread   10  ( -0.000001,  8.214925,  1.986742 )     1.50336982
  WF centre and spread   11  ( -0.000001,  0.060954,  1.944882 )     1.63364372
  WF centre and spread   12  ( -0.000000,  0.060872,  1.981001 )     1.63185213
  WF centre and spread   13  ( -0.000000, -0.037932,  1.963265 )     1.73361853
  WF centre and spread   14  ( -0.000000,  9.832894,  0.018110 )     1.63363563
  WF centre and spread   15  ( -0.000001,  9.832977, -0.018010 )     1.63184499
  WF centre and spread   16  ( -0.000001,  9.931785, -0.000274 )     1.73359482
  WF centre and spread   17  ( -0.000000,  6.594041,  0.017381 )     1.63801832
  WF centre and spread   18  ( -0.000001,  6.593966, -0.017296 )     1.63627934
  WF centre and spread   19  ( -0.000001,  6.508092, -0.000259 )     1.75228744
  WF centre and spread   20  ( -0.000001,  3.299853,  1.945611 )     1.63800388
  WF centre and spread   21  ( -0.000000,  3.299927,  1.980288 )     1.63626486
  WF centre and spread   22  ( -0.000000,  3.385773,  1.963250 )     1.75232680
  Sum of centres and spreads ( -0.000014,108.832489, 21.592908 )    34.81219566
 
      6    -0.198E-01     0.2567291681       34.8122010317       0.17  <-- CONV
        O_D=      0.0328112 O_OD=      1.6247320 O_TOT=     34.8122010 <-- SPRD
 Delta: O_D= -0.2030578E-03 O_OD= -0.1958275E-01 O_TOT= -0.1978581E-01 <-- DLTA
 ------------------------------------------------------------------------------
 Cycle:      7
  WF centre and spread    1  ( -0.000000,  1.679476, -0.102128 )     1.46488018
  WF centre and spread    2  ( -0.000000,  1.679717,  0.097816 )     1.49322137
  WF centre and spread    3  ( -0.000000,  1.678929,  0.023953 )     1.50208539
  WF centre and spread    4  ( -0.000000,  1.678976,  0.003138 )     1.41622759
  WF centre and spread    5  ( -0.000000,  1.678935, -0.023752 )     1.50335153
  WF centre and spread    6  ( -0.000001,  8.214376,  2.065118 )     1.46485211
  WF centre and spread    7  ( -0.000001,  8.214134,  1.865177 )     1.49318948
  WF centre and spread    8  ( -0.000001,  8.214937,  1.939039 )     1.50203422
  WF centre and spread    9  ( -0.000001,  8.214876,  1.959853 )     1.41620740
  WF centre and spread   10  ( -0.000001,  8.214932,  1.986743 )     1.50330032
  WF centre and spread   11  ( -0.000001,  0.060887,  1.944873 )     1.63294598
  WF centre and spread   12  ( -0.000000,  0.060803,  1.981012 )     1.63132069
  WF centre and spread   13  ( -0.000000, -0.037921,  1.963271 )     1.73365891
  WF centre and spread   14  ( -0.000000,  9.832961,  0.018119 )     1.63293820
  WF centre and spread   15  ( -0.000001,  9.833045, -0.018021 )     1.63131348
  WF centre and spread   16  ( -0.000001,  9.931774, -0.000280 )     1.73363506
  WF centre and spread   17  ( -0.000000,  6.593986,  0.017390 )     1.63742317
  WF centre and spread   18  ( -0.000001,  6.593907, -0.017308 )     1.63583595
  WF centre and spread   19  ( -0.000001,  6.508095, -0.000266 )     1.75232449
  WF centre and spread   20  ( -0.000001,  3.299908,  1.945601 )     1.63740877
  WF centre and spread   21  ( -0.000000,  3.299987,  1.980300 )     1.63582156
  WF centre and spread   22  ( -0.000000,  3.385771,  1.963258 )     1.75236421
  Sum of centres and spreads ( -0.000014,108.832489, 21.592908 )    34.80634006
 
      7    -0.586E-02     0.1684373328       34.8063454337       0.20  <-- CONV
        O_D=      0.0325964 O_OD=      1.6190913 O_TOT=     34.8063454 <-- SPRD
 Delta: O_D= -0.2148904E-03 O_OD= -0.5640708E-02 O_TOT= -0.5855598E-02 <-- DLTA
 ------------------------------------------------------------------------------
 Cycle:      8
  WF centre and spread    1  ( -0.000000,  1.679475, -0.102131 )     1.46453589
  WF centre and spread    2  ( -0.000000,  1.679711,  0.097740 )     1.49303879
  WF centre and spread    3  ( -0.000000,  1.678922,  0.023958 )     1.50255788
  WF centre and spread    4  ( -0.000000,  1.678991,  0.003168 )     1.41628665
  WF centre and spread    5  ( -0.000000,  1.678925, -0.023753 )     1.50354847
  WF centre and spread    6  ( -0.000001,  8.214376,  2.065121 )     1.46450787
  WF centre and spread    7  ( -0.000001,  8.214140,  1.865254 )     1.49300693
  WF centre and spread    8  ( -0.000001,  8.214944,  1.939034 )     1.50250688
  WF centre and spread    9  ( -0.000001,  8.214861,  1.959824 )     1.41626656
  WF centre and spread   10  ( -0.000001,  8.214941,  1.986745 )     1.50349744
  WF centre and spread   11  ( -0.000001,  0.060780,  1.944853 )     1.63203150
  WF centre and spread   12  ( -0.000000,  0.060688,  1.981034 )     1.63070013
  WF centre and spread   13  ( -0.000000, -0.037881,  1.963282 )     1.73410042
  WF centre and spread   14  ( -0.000000,  9.833068,  0.018139 )     1.63202388
  WF centre and spread   15  ( -0.000001,  9.833161, -0.018043 )     1.63069275
  WF centre and spread   16  ( -0.000001,  9.931733, -0.000291 )     1.73407647
  WF centre and spread   17  ( -0.000000,  6.593884,  0.017413 )     1.63660609
  WF centre and spread   18  ( -0.000001,  6.593794, -0.017335 )     1.63530563
  WF centre and spread   19  ( -0.000001,  6.508089, -0.000279 )     1.75276988
  WF centre and spread   20  ( -0.000001,  3.300010,  1.945578 )     1.63659188
  WF centre and spread   21  ( -0.000000,  3.300099,  1.980327 )     1.63529140
  WF centre and spread   22  ( -0.000000,  3.385776,  1.963270 )     1.75281003
  Sum of centres and spreads ( -0.000014,108.832489, 21.592908 )    34.80275343
 
      8    -0.359E-02     0.1020517448       34.8027588048       0.23  <-- CONV
        O_D=      0.0323455 O_OD=      1.6157556 O_TOT=     34.8027588 <-- SPRD
 Delta: O_D= -0.2508892E-03 O_OD= -0.3335740E-02 O_TOT= -0.3586629E-02 <-- DLTA
 ------------------------------------------------------------------------------
 Cycle:      9
  WF centre and spread    1  ( -0.000000,  1.679475, -0.102140 )     1.46439048
  WF centre and spread    2  ( -0.000000,  1.679705,  0.097681 )     1.49302206
  WF centre and spread    3  ( -0.000000,  1.678916,  0.023964 )     1.50305211
  WF centre and spread    4  ( -0.000000,  1.679003,  0.003198 )     1.41645858
  WF centre and spread    5  ( -0.000000,  1.678918, -0.023755 )     1.50384029
  WF centre and spread    6  ( -0.000001,  8.214377,  2.065130 )     1.46436253
  WF centre and spread    7  ( -0.000001,  8.214146,  1.865312 )     1.49299024
  WF centre and spread    8  ( -0.000001,  8.214950,  1.939028 )     1.50300127
  WF centre and spread    9  ( -0.000001,  8.214849,  1.959794 )     1.41643859
  WF centre and spread   10  ( -0.000001,  8.214948,  1.986747 )     1.50378942
  WF centre and spread   11  ( -0.000001,  0.060708,  1.944833 )     1.63129094
  WF centre and spread   12  ( -0.000000,  0.060604,  1.981053 )     1.63021443
  WF centre and spread   13  ( -0.000000, -0.037843,  1.963291 )     1.73449386
  WF centre and spread   14  ( -0.000000,  9.833140,  0.018159 )     1.63128335
  WF centre and spread   15  ( -0.000001,  9.833244, -0.018061 )     1.63020692
  WF centre and spread   16  ( -0.000001,  9.931695, -0.000299 )     1.73446990
  WF centre and spread   17  ( -0.000000,  6.593821,  0.017437 )     1.63591268
  WF centre and spread   18  ( -0.000001,  6.593718, -0.017357 )     1.63486197
  WF centre and spread   19  ( -0.000001,  6.508096, -0.000287 )     1.75315497
  WF centre and spread   20  ( -0.000001,  3.300072,  1.945554 )     1.63589863
  WF centre and spread   21  ( -0.000000,  3.300176,  1.980349 )     1.63484790
  WF centre and spread   22  ( -0.000000,  3.385769,  1.963279 )     1.75319543
  Sum of centres and spreads ( -0.000014,108.832489, 21.592908 )    34.80117657
 
      9    -0.158E-02     0.0737649748       34.8011819407       0.25  <-- CONV
        O_D=      0.0322232 O_OD=      1.6143010 O_TOT=     34.8011819 <-- SPRD
 Delta: O_D= -0.1222759E-03 O_OD= -0.1454588E-02 O_TOT= -0.1576864E-02 <-- DLTA
 ------------------------------------------------------------------------------
 Cycle:     10
  WF centre and spread    1  ( -0.000000,  1.679475, -0.102151 )     1.46438695
  WF centre and spread    2  ( -0.000000,  1.679702,  0.097645 )     1.49309931
  WF centre and spread    3  ( -0.000000,  1.678913,  0.023975 )     1.50345034
  WF centre and spread    4  ( -0.000000,  1.679011,  0.003224 )     1.41667346
  WF centre and spread    5  ( -0.000000,  1.678914, -0.023762 )     1.50410582
  WF centre and spread    6  ( -0.000001,  8.214377,  2.065141 )     1.46435905
  WF centre and spread    7  ( -0.000001,  8.214150,  1.865348 )     1.49306753
  WF centre and spread    8  ( -0.000001,  8.214953,  1.939017 )     1.50339958
  WF centre and spread    9  ( -0.000001,  8.214841,  1.959768 )     1.41665353
  WF centre and spread   10  ( -0.000001,  8.214952,  1.986753 )     1.50405503
  WF centre and spread   11  ( -0.000001,  0.060670,  1.944816 )     1.63075942
  WF centre and spread   12  ( -0.000000,  0.060556,  1.981064 )     1.62985294
  WF centre and spread   13  ( -0.000000, -0.037815,  1.963296 )     1.73473661
  WF centre and spread   14  ( -0.000000,  9.833178,  0.018176 )     1.63075181
  WF centre and spread   15  ( -0.000001,  9.833293, -0.018073 )     1.62984538
  WF centre and spread   16  ( -0.000001,  9.931667, -0.000305 )     1.73471264
  WF centre and spread   17  ( -0.000000,  6.593793,  0.017456 )     1.63539866
  WF centre and spread   18  ( -0.000001,  6.593678, -0.017372 )     1.63451411
  WF centre and spread   19  ( -0.000001,  6.508112, -0.000292 )     1.75341118
  WF centre and spread   20  ( -0.000001,  3.300100,  1.945535 )     1.63538475
  WF centre and spread   21  ( -0.000000,  3.300216,  1.980364 )     1.63450020
  WF centre and spread   22  ( -0.000000,  3.385753,  1.963283 )     1.75345185
  Sum of centres and spreads ( -0.000014,108.832489, 21.592908 )    34.80057016
 
     10    -0.606E-03     0.0455352802       34.8005755371       0.28  <-- CONV
        O_D=      0.0321588 O_OD=      1.6137590 O_TOT=     34.8005755 <-- SPRD
 Delta: O_D= -0.6440578E-04 O_OD= -0.5419978E-03 O_TOT= -0.6064036E-03 <-- DLTA
 ------------------------------------------------------------------------------
 Cycle:     11
  WF centre and spread    1  ( -0.000000,  1.679476, -0.102160 )     1.46447142
  WF centre and spread    2  ( -0.000000,  1.679700,  0.097616 )     1.49323812
  WF centre and spread    3  ( -0.000000,  1.678913,  0.023989 )     1.50380610
  WF centre and spread    4  ( -0.000000,  1.679017,  0.003248 )     1.41692876
  WF centre and spread    5  ( -0.000000,  1.678913, -0.023771 )     1.50435621
  WF centre and spread    6  ( -0.000001,  8.214376,  2.065149 )     1.46444357
  WF centre and spread    7  ( -0.000001,  8.214151,  1.865377 )     1.49320638
  WF centre and spread    8  ( -0.000001,  8.214953,  1.939003 )     1.50375539
  WF centre and spread    9  ( -0.000001,  8.214835,  1.959744 )     1.41690889
  WF centre and spread   10  ( -0.000001,  8.214953,  1.986762 )     1.50430547
  WF centre and spread   11  ( -0.000001,  0.060648,  1.944803 )     1.63031994
  WF centre and spread   12  ( -0.000000,  0.060524,  1.981073 )     1.62951801
  WF centre and spread   13  ( -0.000000, -0.037792,  1.963301 )     1.73488646
  WF centre and spread   14  ( -0.000000,  9.833200,  0.018189 )     1.63031233
  WF centre and spread   15  ( -0.000001,  9.833325, -0.018081 )     1.62951043
  WF centre and spread   16  ( -0.000001,  9.931645, -0.000309 )     1.73486250
  WF centre and spread   17  ( -0.000000,  6.593779,  0.017471 )     1.63496507
  WF centre and spread   18  ( -0.000001,  6.593653, -0.017383 )     1.63418175
  WF centre and spread   19  ( -0.000001,  6.508130, -0.000295 )     1.75358535
  WF centre and spread   20  ( -0.000001,  3.300115,  1.945520 )     1.63495129
  WF centre and spread   21  ( -0.000000,  3.300240,  1.980375 )     1.63416796
  WF centre and spread   22  ( -0.000000,  3.385735,  1.963286 )     1.75362614
  Sum of centres and spreads ( -0.000014,108.832489, 21.592908 )    34.80030755
 
     11    -0.263E-03     0.0284536781       34.8003129261       0.31  <-- CONV
        O_D=      0.0321131 O_OD=      1.6135421 O_TOT=     34.8003129 <-- SPRD
 Delta: O_D= -0.4567246E-04 O_OD= -0.2169385E-03 O_TOT= -0.2626110E-03 <-- DLTA
 ------------------------------------------------------------------------------
 Cycle:     12
  WF centre and spread    1  ( -0.000000,  1.679476, -0.102166 )     1.46459962
  WF centre and spread    2  ( -0.000000,  1.679699,  0.097585 )     1.49341238
  WF centre and spread    3  ( -0.000000,  1.678913,  0.024002 )     1.50417912
  WF centre and spread    4  ( -0.000000,  1.679022,  0.003274 )     1.41721726
  WF centre and spread    5  ( -0.000000,  1.678913, -0.023780 )     1.50462520
  WF centre and spread    6  ( -0.000001,  8.214375,  2.065156 )     1.46457182
  WF centre and spread    7  ( -0.000001,  8.214152,  1.865409 )     1.49338068
  WF centre and spread    8  ( -0.000001,  8.214953,  1.938990 )     1.50412846
  WF centre and spread    9  ( -0.000001,  8.214830,  1.959718 )     1.41719746
  WF centre and spread   10  ( -0.000001,  8.214953,  1.986771 )     1.50457450
  WF centre and spread   11  ( -0.000001,  0.060630,  1.944792 )     1.62988902
  WF centre and spread   12  ( -0.000000,  0.060497,  1.981081 )     1.62915252
  WF centre and spread   13  ( -0.000000, -0.037773,  1.963305 )     1.73500709
  WF centre and spread   14  ( -0.000000,  9.833219,  0.018200 )     1.62988141
  WF centre and spread   15  ( -0.000001,  9.833352, -0.018089 )     1.62914494
  WF centre and spread   16  ( -0.000001,  9.931625, -0.000314 )     1.73498315
  WF centre and spread   17  ( -0.000000,  6.593767,  0.017483 )     1.63454826
  WF centre and spread   18  ( -0.000001,  6.593632, -0.017393 )     1.63382582
  WF centre and spread   19  ( -0.000001,  6.508147, -0.000299 )     1.75371879
  WF centre and spread   20  ( -0.000001,  3.300126,  1.945508 )     1.63453460
  WF centre and spread   21  ( -0.000000,  3.300262,  1.980385 )     1.63381215
  WF centre and spread   22  ( -0.000000,  3.385718,  1.963291 )     1.75375967
  Sum of centres and spreads ( -0.000014,108.832489, 21.592908 )    34.80014393
 
     12    -0.164E-03     0.0228221033       34.8001493065       0.34  <-- CONV
        O_D=      0.0320787 O_OD=      1.6134128 O_TOT=     34.8001493 <-- SPRD
 Delta: O_D= -0.3437970E-04 O_OD= -0.1292399E-03 O_TOT= -0.1636196E-03 <-- DLTA
 ------------------------------------------------------------------------------
 Cycle:     13
  WF centre and spread    1  ( -0.000000,  1.679476, -0.102166 )     1.46463557
  WF centre and spread    2  ( -0.000000,  1.679699,  0.097576 )     1.49345372
  WF centre and spread    3  ( -0.000000,  1.678913,  0.024003 )     1.50425783
  WF centre and spread    4  ( -0.000000,  1.679022,  0.003279 )     1.41727597
  WF centre and spread    5  ( -0.000000,  1.678913, -0.023781 )     1.50468148
  WF centre and spread    6  ( -0.000001,  8.214375,  2.065156 )     1.46460777
  WF centre and spread    7  ( -0.000001,  8.214152,  1.865417 )     1.49342201
  WF centre and spread    8  ( -0.000001,  8.214953,  1.938989 )     1.50420717
  WF centre and spread    9  ( -0.000001,  8.214830,  1.959713 )     1.41725617
  WF centre and spread   10  ( -0.000001,  8.214953,  1.986772 )     1.50463077
  WF centre and spread   11  ( -0.000001,  0.060628,  1.944790 )     1.62981009
  WF centre and spread   12  ( -0.000000,  0.060493,  1.981083 )     1.62906118
  WF centre and spread   13  ( -0.000000, -0.037772,  1.963307 )     1.73503448
  WF centre and spread   14  ( -0.000000,  9.833221,  0.018202 )     1.62980247
  WF centre and spread   15  ( -0.000001,  9.833356, -0.018091 )     1.62905359
  WF centre and spread   16  ( -0.000001,  9.931624, -0.000315 )     1.73501053
  WF centre and spread   17  ( -0.000000,  6.593765,  0.017485 )     1.63447353
  WF centre and spread   18  ( -0.000001,  6.593628, -0.017394 )     1.63373959
  WF centre and spread   19  ( -0.000001,  6.508149, -0.000301 )     1.75372101
  WF centre and spread   20  ( -0.000001,  3.300129,  1.945507 )     1.63445989
  WF centre and spread   21  ( -0.000000,  3.300265,  1.980386 )     1.63372595
  WF centre and spread   22  ( -0.000000,  3.385717,  1.963292 )     1.75376189
  Sum of centres and spreads ( -0.000014,108.832489, 21.592908 )    34.80008266
 
     13    -0.613E-04     0.0161462637       34.8000880333       0.37  <-- CONV
        O_D=      0.0320709 O_OD=      1.6133594 O_TOT=     34.8000880 <-- SPRD
 Delta: O_D= -0.7821277E-05 O_OD= -0.5345196E-04 O_TOT= -0.6127324E-04 <-- DLTA
 ------------------------------------------------------------------------------
 Cycle:     14
  WF centre and spread    1  ( -0.000000,  1.679477, -0.102164 )     1.46471197
  WF centre and spread    2  ( -0.000000,  1.679699,  0.097559 )     1.49353980
  WF centre and spread    3  ( -0.000000,  1.678913,  0.024006 )     1.50441581
  WF centre and spread    4  ( -0.000000,  1.679023,  0.003290 )     1.41739715
  WF centre and spread    5  ( -0.000000,  1.678913, -0.023783 )     1.50479337
  WF centre and spread    6  ( -0.000001,  8.214375,  2.065154 )     1.46468418
  WF centre and spread    7  ( -0.000001,  8.214152,  1.865435 )     1.49350810
  WF centre and spread    8  ( -0.000001,  8.214953,  1.938986 )     1.50436517
  WF centre and spread    9  ( -0.000001,  8.214829,  1.959702 )     1.41737736
  WF centre and spread   10  ( -0.000001,  8.214953,  1.986775 )     1.50474268
  WF centre and spread   11  ( -0.000001,  0.060623,  1.944785 )     1.62965255
  WF centre and spread   12  ( -0.000000,  0.060486,  1.981087 )     1.62888572
  WF centre and spread   13  ( -0.000000, -0.037767,  1.963311 )     1.73508719
  WF centre and spread   14  ( -0.000000,  9.833225,  0.018207 )     1.62964493
  WF centre and spread   15  ( -0.000001,  9.833362, -0.018096 )     1.62887812
  WF centre and spread   16  ( -0.000001,  9.931619, -0.000319 )     1.73506324
  WF centre and spread   17  ( -0.000000,  6.593761,  0.017489 )     1.63432485
  WF centre and spread   18  ( -0.000001,  6.593621, -0.017398 )     1.63357282
  WF centre and spread   19  ( -0.000001,  6.508153, -0.000305 )     1.75374214
  WF centre and spread   20  ( -0.000001,  3.300133,  1.945503 )     1.63431125
  WF centre and spread   21  ( -0.000000,  3.300272,  1.980390 )     1.63355921
  WF centre and spread   22  ( -0.000000,  3.385713,  1.963296 )     1.75378300
  Sum of centres and spreads ( -0.000014,108.832489, 21.592908 )    34.80004062
 
     14    -0.420E-04     0.0109015000       34.8000459980       0.39  <-- CONV
        O_D=      0.0320568 O_OD=      1.6133315 O_TOT=     34.8000460 <-- SPRD
 Delta: O_D= -0.1415880E-04 O_OD= -0.2787644E-04 O_TOT= -0.4203524E-04 <-- DLTA
 ------------------------------------------------------------------------------
 Cycle:     15
  WF centre and spread    1  ( -0.000000,  1.679477, -0.102161 )     1.46482540
  WF centre and spread    2  ( -0.000000,  1.679699,  0.097533 )     1.49366194
  WF centre and spread    3  ( -0.000000,  1.678914,  0.024010 )     1.50464533
  WF centre and spread    4  ( -0.000000,  1.679025,  0.003305 )     1.41757668
  WF centre and spread    5  ( -0.000000,  1.678914, -0.023787 )     1.50495284
  WF centre and spread    6  ( -0.000001,  8.214375,  2.065151 )     1.46479764
  WF centre and spread    7  ( -0.000001,  8.214153,  1.865461 )     1.49363026
  WF centre and spread    8  ( -0.000001,  8.214952,  1.938982 )     1.50459474
  WF centre and spread    9  ( -0.000001,  8.214827,  1.959687 )     1.41755693
  WF centre and spread   10  ( -0.000001,  8.214952,  1.986779 )     1.50490218
  WF centre and spread   11  ( -0.000001,  0.060617,  1.944776 )     1.62941646
  WF centre and spread   12  ( -0.000000,  0.060476,  1.981094 )     1.62863339
  WF centre and spread   13  ( -0.000000, -0.037760,  1.963316 )     1.73516721
  WF centre and spread   14  ( -0.000000,  9.833231,  0.018216 )     1.62940884
  WF centre and spread   15  ( -0.000001,  9.833372, -0.018103 )     1.62862579
  WF centre and spread   16  ( -0.000001,  9.931612, -0.000325 )     1.73514328
  WF centre and spread   17  ( -0.000000,  6.593756,  0.017496 )     1.63409997
  WF centre and spread   18  ( -0.000001,  6.593612, -0.017405 )     1.63332988
  WF centre and spread   19  ( -0.000001,  6.508160, -0.000310 )     1.75379494
  WF centre and spread   20  ( -0.000001,  3.300138,  1.945495 )     1.63408642
  WF centre and spread   21  ( -0.000000,  3.300281,  1.980396 )     1.63331634
  WF centre and spread   22  ( -0.000000,  3.385706,  1.963302 )     1.75383577
  Sum of centres and spreads ( -0.000014,108.832489, 21.592908 )    34.80000225
 
     15    -0.384E-04     0.0098641257       34.8000076217       0.42  <-- CONV
        O_D=      0.0320371 O_OD=      1.6133127 O_TOT=     34.8000076 <-- SPRD
 Delta: O_D= -0.1962653E-04 O_OD= -0.1874975E-04 O_TOT= -0.3837628E-04 <-- DLTA
 ------------------------------------------------------------------------------
 Cycle:     16
  WF centre and spread    1  ( -0.000000,  1.679477, -0.102160 )     1.46489456
  WF centre and spread    2  ( -0.000000,  1.679699,  0.097517 )     1.49372853
  WF centre and spread    3  ( -0.000000,  1.678914,  0.024014 )     1.50479021
  WF centre and spread    4  ( -0.000000,  1.679026,  0.003314 )     1.41768925
  WF centre and spread    5  ( -0.000000,  1.678914, -0.023791 )     1.50505138
  WF centre and spread    6  ( -0.000001,  8.214375,  2.065150 )     1.46486682
  WF centre and spread    7  ( -0.000001,  8.214153,  1.865477 )     1.49369686
  WF centre and spread    8  ( -0.000001,  8.214952,  1.938978 )     1.50473964
  WF centre and spread    9  ( -0.000001,  8.214826,  1.959677 )     1.41766952
  WF centre and spread   10  ( -0.000001,  8.214952,  1.986782 )     1.50500075
  WF centre and spread   11  ( -0.000001,  0.060613,  1.944769 )     1.62926307
  WF centre and spread   12  ( -0.000000,  0.060470,  1.981099 )     1.62847506
  WF centre and spread   13  ( -0.000000, -0.037756,  1.963320 )     1.73522726
  WF centre and spread   14  ( -0.000000,  9.833235,  0.018223 )     1.62925545
  WF centre and spread   15  ( -0.000001,  9.833378, -0.018108 )     1.62846746
  WF centre and spread   16  ( -0.000001,  9.931608, -0.000329 )     1.73520334
  WF centre and spread   17  ( -0.000000,  6.593752,  0.017503 )     1.63395300
  WF centre and spread   18  ( -0.000001,  6.593607, -0.017409 )     1.63317621
  WF centre and spread   19  ( -0.000001,  6.508164, -0.000314 )     1.75384659
  WF centre and spread   20  ( -0.000001,  3.300141,  1.945488 )     1.63393949
  WF centre and spread   21  ( -0.000000,  3.300287,  1.980401 )     1.63316271
  WF centre and spread   22  ( -0.000000,  3.385701,  1.963306 )     1.75388741
  Sum of centres and spreads ( -0.000014,108.832489, 21.592908 )    34.79998456
 
     16    -0.177E-04     0.0077109110       34.7999899365       0.45  <-- CONV
        O_D=      0.0320260 O_OD=      1.6133062 O_TOT=     34.7999899 <-- SPRD
 Delta: O_D= -0.1110813E-04 O_OD= -0.6577095E-05 O_TOT= -0.1768523E-04 <-- DLTA
 ------------------------------------------------------------------------------
 Cycle:     17
  WF centre and spread    1  ( -0.000000,  1.679477, -0.102160 )     1.46494378
  WF centre and spread    2  ( -0.000000,  1.679698,  0.097505 )     1.49376691
  WF centre and spread    3  ( -0.000000,  1.678914,  0.024017 )     1.50490108
  WF centre and spread    4  ( -0.000000,  1.679027,  0.003322 )     1.41777203
  WF centre and spread    5  ( -0.000000,  1.678914, -0.023793 )     1.50512607
  WF centre and spread    6  ( -0.000001,  8.214375,  2.065150 )     1.46491605
  WF centre and spread    7  ( -0.000001,  8.214153,  1.865488 )     1.49373526
  WF centre and spread    8  ( -0.000001,  8.214952,  1.938975 )     1.50485053
  WF centre and spread    9  ( -0.000001,  8.214825,  1.959670 )     1.41775233
  WF centre and spread   10  ( -0.000001,  8.214952,  1.986785 )     1.50507545
  WF centre and spread   11  ( -0.000001,  0.060609,  1.944762 )     1.62914545
  WF centre and spread   12  ( -0.000000,  0.060465,  1.981104 )     1.62835435
  WF centre and spread   13  ( -0.000000, -0.037754,  1.963324 )     1.73528165
  WF centre and spread   14  ( -0.000000,  9.833239,  0.018230 )     1.62913782
  WF centre and spread   15  ( -0.000001,  9.833384, -0.018112 )     1.62834675
  WF centre and spread   16  ( -0.000001,  9.931607, -0.000333 )     1.73525774
  WF centre and spread   17  ( -0.000000,  6.593749,  0.017509 )     1.63383964
  WF centre and spread   18  ( -0.000001,  6.593602, -0.017414 )     1.63305865
  WF centre and spread   19  ( -0.000001,  6.508168, -0.000318 )     1.75390048
  WF centre and spread   20  ( -0.000001,  3.300145,  1.945482 )     1.63382617
  WF centre and spread   21  ( -0.000000,  3.300292,  1.980406 )     1.63304519
  WF centre and spread   22  ( -0.000000,  3.385698,  1.963309 )     1.75394130
  Sum of centres and spreads ( -0.000014,108.832489, 21.592908 )    34.79997466
 
     17    -0.991E-05     0.0053496168       34.7999800310       0.48  <-- CONV
        O_D=      0.0320190 O_OD=      1.6133033 O_TOT=     34.7999800 <-- SPRD
 Delta: O_D= -0.7001395E-05 O_OD= -0.2904071E-05 O_TOT= -0.9905465E-05 <-- DLTA
 ------------------------------------------------------------------------------
 Cycle:     18
  WF centre and spread    1  ( -0.000000,  1.679477, -0.102161 )     1.46497563
  WF centre and spread    2  ( -0.000000,  1.679698,  0.097498 )     1.49378594
  WF centre and spread    3  ( -0.000000,  1.678915,  0.024019 )     1.50497629
  WF centre and spread    4  ( -0.000000,  1.679028,  0.003328 )     1.41782432
  WF centre and spread    5  ( -0.000000,  1.678914, -0.023795 )     1.50517719
  WF centre and spread    6  ( -0.000001,  8.214375,  2.065151 )     1.46494791
  WF centre and spread    7  ( -0.000001,  8.214153,  1.865496 )     1.49375429
  WF centre and spread    8  ( -0.000001,  8.214951,  1.938973 )     1.50492574
  WF centre and spread    9  ( -0.000001,  8.214824,  1.959664 )     1.41780463
  WF centre and spread   10  ( -0.000001,  8.214952,  1.986787 )     1.50512658
  WF centre and spread   11  ( -0.000001,  0.060606,  1.944756 )     1.62906775
  WF centre and spread   12  ( -0.000000,  0.060461,  1.981107 )     1.62827208
  WF centre and spread   13  ( -0.000000, -0.037754,  1.963327 )     1.73532188
  WF centre and spread   14  ( -0.000000,  9.833242,  0.018236 )     1.62906012
  WF centre and spread   15  ( -0.000001,  9.833388, -0.018116 )     1.62826447
  WF centre and spread   16  ( -0.000001,  9.931607, -0.000336 )     1.73529797
  WF centre and spread   17  ( -0.000000,  6.593746,  0.017514 )     1.63376476
  WF centre and spread   18  ( -0.000001,  6.593598, -0.017417 )     1.63297908
  WF centre and spread   19  ( -0.000001,  6.508169, -0.000320 )     1.75394245
  WF centre and spread   20  ( -0.000001,  3.300148,  1.945477 )     1.63375132
  WF centre and spread   21  ( -0.000000,  3.300296,  1.980409 )     1.63296564
  WF centre and spread   22  ( -0.000000,  3.385697,  1.963312 )     1.75398330
  Sum of centres and spreads ( -0.000014,108.832489, 21.592908 )    34.79996935
 
     18    -0.531E-05     0.0040162100       34.7999747206       0.51  <-- CONV
        O_D=      0.0320152 O_OD=      1.6133017 O_TOT=     34.7999747 <-- SPRD
 Delta: O_D= -0.3771616E-05 O_OD= -0.1538846E-05 O_TOT= -0.5310462E-05 <-- DLTA
 ------------------------------------------------------------------------------
 Cycle:     19
  WF centre and spread    1  ( -0.000000,  1.679477, -0.102162 )     1.46497738
  WF centre and spread    2  ( -0.000000,  1.679698,  0.097497 )     1.49378492
  WF centre and spread    3  ( -0.000000,  1.678915,  0.024019 )     1.50497979
  WF centre and spread    4  ( -0.000000,  1.679028,  0.003329 )     1.41782451
  WF centre and spread    5  ( -0.000000,  1.678914, -0.023795 )     1.50517974
  WF centre and spread    6  ( -0.000001,  8.214375,  2.065152 )     1.46494966
  WF centre and spread    7  ( -0.000001,  8.214154,  1.865496 )     1.49375327
  WF centre and spread    8  ( -0.000001,  8.214951,  1.938973 )     1.50492925
  WF centre and spread    9  ( -0.000001,  8.214824,  1.959663 )     1.41780482
  WF centre and spread   10  ( -0.000001,  8.214952,  1.986787 )     1.50512913
  WF centre and spread   11  ( -0.000001,  0.060606,  1.944756 )     1.62906483
  WF centre and spread   12  ( -0.000000,  0.060460,  1.981108 )     1.62826765
  WF centre and spread   13  ( -0.000000, -0.037755,  1.963328 )     1.73532515
  WF centre and spread   14  ( -0.000000,  9.833243,  0.018236 )     1.62905720
  WF centre and spread   15  ( -0.000001,  9.833388, -0.018116 )     1.62826004
  WF centre and spread   16  ( -0.000001,  9.931607, -0.000336 )     1.73530124
  WF centre and spread   17  ( -0.000000,  6.593745,  0.017515 )     1.63376211
  WF centre and spread   18  ( -0.000001,  6.593598, -0.017418 )     1.63297521
  WF centre and spread   19  ( -0.000001,  6.508168, -0.000321 )     1.75394494
  WF centre and spread   20  ( -0.000001,  3.300148,  1.945476 )     1.63374867
  WF centre and spread   21  ( -0.000000,  3.300296,  1.980410 )     1.63296177
  WF centre and spread   22  ( -0.000000,  3.385697,  1.963312 )     1.75398579
  Sum of centres and spreads ( -0.000014,108.832489, 21.592908 )    34.79996710
 
     19    -0.225E-05     0.0033782261       34.7999724702       0.53  <-- CONV
        O_D=      0.0320154 O_OD=      1.6132993 O_TOT=     34.7999725 <-- SPRD
 Delta: O_D=  0.1948071E-06 O_OD= -0.2445155E-05 O_TOT= -0.2250348E-05 <-- DLTA
 ------------------------------------------------------------------------------
 Cycle:     20
  WF centre and spread    1  ( -0.000000,  1.679477, -0.102165 )     1.46498218
  WF centre and spread    2  ( -0.000000,  1.679698,  0.097496 )     1.49378268
  WF centre and spread    3  ( -0.000000,  1.678915,  0.024019 )     1.50498808
  WF centre and spread    4  ( -0.000000,  1.679028,  0.003331 )     1.41782510
  WF centre and spread    5  ( -0.000000,  1.678914, -0.023795 )     1.50518556
  WF centre and spread    6  ( -0.000001,  8.214375,  2.065154 )     1.46495447
  WF centre and spread    7  ( -0.000001,  8.214154,  1.865497 )     1.49375104
  WF centre and spread    8  ( -0.000001,  8.214951,  1.938973 )     1.50493754
  WF centre and spread    9  ( -0.000001,  8.214824,  1.959661 )     1.41780541
  WF centre and spread   10  ( -0.000001,  8.214952,  1.986787 )     1.50513495
  WF centre and spread   11  ( -0.000001,  0.060605,  1.944754 )     1.62905767
  WF centre and spread   12  ( -0.000000,  0.060460,  1.981109 )     1.62825769
  WF centre and spread   13  ( -0.000000, -0.037756,  1.963329 )     1.73533314
  WF centre and spread   14  ( -0.000000,  9.833243,  0.018238 )     1.62905004
  WF centre and spread   15  ( -0.000001,  9.833389, -0.018117 )     1.62825008
  WF centre and spread   16  ( -0.000001,  9.931608, -0.000338 )     1.73530922
  WF centre and spread   17  ( -0.000000,  6.593744,  0.017517 )     1.63375553
  WF centre and spread   18  ( -0.000001,  6.593597, -0.017419 )     1.63296648
  WF centre and spread   19  ( -0.000001,  6.508167, -0.000322 )     1.75395140
  WF centre and spread   20  ( -0.000001,  3.300149,  1.945475 )     1.63374209
  WF centre and spread   21  ( -0.000000,  3.300297,  1.980410 )     1.63295304
  WF centre and spread   22  ( -0.000000,  3.385699,  1.963314 )     1.75399225
  Sum of centres and spreads ( -0.000014,108.832489, 21.592908 )    34.79996565
 
     20    -0.145E-05     0.0019629349       34.7999710222       0.56  <-- CONV
        O_D=      0.0320160 O_OD=      1.6132972 O_TOT=     34.7999710 <-- SPRD
 Delta: O_D=  0.6031733E-06 O_OD= -0.2051224E-05 O_TOT= -0.1448051E-05 <-- DLTA
 ------------------------------------------------------------------------------
 Cycle:     21
  WF centre and spread    1  ( -0.000000,  1.679476, -0.102168 )     1.46499084
  WF centre and spread    2  ( -0.000000,  1.679697,  0.097495 )     1.49378005
  WF centre and spread    3  ( -0.000000,  1.678915,  0.024019 )     1.50499931
  WF centre and spread    4  ( -0.000000,  1.679029,  0.003334 )     1.41782592
  WF centre and spread    5  ( -0.000000,  1.678914, -0.023796 )     1.50519292
  WF centre and spread    6  ( -0.000001,  8.214375,  2.065158 )     1.46496312
  WF centre and spread    7  ( -0.000001,  8.214154,  1.865498 )     1.49374841
  WF centre and spread    8  ( -0.000001,  8.214951,  1.938972 )     1.50494878
  WF centre and spread    9  ( -0.000001,  8.214824,  1.959657 )     1.41780624
  WF centre and spread   10  ( -0.000001,  8.214952,  1.986787 )     1.50514232
  WF centre and spread   11  ( -0.000001,  0.060604,  1.944750 )     1.62904639
  WF centre and spread   12  ( -0.000000,  0.060459,  1.981110 )     1.62824446
  WF centre and spread   13  ( -0.000000, -0.037757,  1.963332 )     1.73534411
  WF centre and spread   14  ( -0.000000,  9.833244,  0.018242 )     1.62903876
  WF centre and spread   15  ( -0.000001,  9.833389, -0.018118 )     1.62823685
  WF centre and spread   16  ( -0.000001,  9.931609, -0.000341 )     1.73532020
  WF centre and spread   17  ( -0.000000,  6.593743,  0.017520 )     1.63374489
  WF centre and spread   18  ( -0.000001,  6.593596, -0.017420 )     1.63295450
  WF centre and spread   19  ( -0.000001,  6.508166, -0.000325 )     1.75396149
  WF centre and spread   20  ( -0.000001,  3.300150,  1.945472 )     1.63373146
  WF centre and spread   21  ( -0.000000,  3.300298,  1.980412 )     1.63294107
  WF centre and spread   22  ( -0.000000,  3.385700,  1.963316 )     1.75400235
  Sum of centres and spreads ( -0.000014,108.832489, 21.592908 )    34.79996444
 
     21    -0.121E-05     0.0017114287       34.7999698159       0.59  <-- CONV
        O_D=      0.0320171 O_OD=      1.6132950 O_TOT=     34.7999698 <-- SPRD
 Delta: O_D=  0.1053751E-05 O_OD= -0.2260019E-05 O_TOT= -0.1206269E-05 <-- DLTA
 ------------------------------------------------------------------------------
 Cycle:     22
  WF centre and spread    1  ( -0.000000,  1.679476, -0.102175 )     1.46500675
  WF centre and spread    2  ( -0.000000,  1.679697,  0.097493 )     1.49377841
  WF centre and spread    3  ( -0.000000,  1.678915,  0.024020 )     1.50501347
  WF centre and spread    4  ( -0.000000,  1.679029,  0.003341 )     1.41782694
  WF centre and spread    5  ( -0.000000,  1.678914, -0.023796 )     1.50520152
  WF centre and spread    6  ( -0.000001,  8.214376,  2.065164 )     1.46497903
  WF centre and spread    7  ( -0.000001,  8.214154,  1.865500 )     1.49374676
  WF centre and spread    8  ( -0.000001,  8.214951,  1.938972 )     1.50496294
  WF centre and spread    9  ( -0.000001,  8.214823,  1.959651 )     1.41780726
  WF centre and spread   10  ( -0.000001,  8.214952,  1.986788 )     1.50515093
  WF centre and spread   11  ( -0.000001,  0.060604,  1.944745 )     1.62902941
  WF centre and spread   12  ( -0.000000,  0.060458,  1.981111 )     1.62822742
  WF centre and spread   13  ( -0.000000, -0.037757,  1.963337 )     1.73535730
  WF centre and spread   14  ( -0.000000,  9.833245,  0.018247 )     1.62902178
  WF centre and spread   15  ( -0.000001,  9.833390, -0.018120 )     1.62821981
  WF centre and spread   16  ( -0.000001,  9.931610, -0.000345 )     1.73533339
  WF centre and spread   17  ( -0.000000,  6.593742,  0.017524 )     1.63372857
  WF centre and spread   18  ( -0.000001,  6.593595, -0.017421 )     1.63293848
  WF centre and spread   19  ( -0.000001,  6.508165, -0.000328 )     1.75397593
  WF centre and spread   20  ( -0.000001,  3.300151,  1.945467 )     1.63371515
  WF centre and spread   21  ( -0.000000,  3.300299,  1.980413 )     1.63292506
  WF centre and spread   22  ( -0.000000,  3.385700,  1.963320 )     1.75401680
  Sum of centres and spreads ( -0.000014,108.832489, 21.592908 )    34.79996310
 
     22    -0.134E-05     0.0017201268       34.7999684719       0.62  <-- CONV
        O_D=      0.0320186 O_OD=      1.6132921 O_TOT=     34.7999685 <-- SPRD
 Delta: O_D=  0.1518031E-05 O_OD= -0.2862014E-05 O_TOT= -0.1343983E-05 <-- DLTA
 ------------------------------------------------------------------------------
 Cycle:     23
  WF centre and spread    1  ( -0.000000,  1.679475, -0.102186 )     1.46503873
  WF centre and spread    2  ( -0.000000,  1.679696,  0.097490 )     1.49378117
  WF centre and spread    3  ( -0.000000,  1.678916,  0.024020 )     1.50503292
  WF centre and spread    4  ( -0.000000,  1.679029,  0.003352 )     1.41782771
  WF centre and spread    5  ( -0.000000,  1.678914, -0.023797 )     1.50521306
  WF centre and spread    6  ( -0.000001,  8.214377,  2.065175 )     1.46501101
  WF centre and spread    7  ( -0.000001,  8.214155,  1.865503 )     1.49374953
  WF centre and spread    8  ( -0.000001,  8.214950,  1.938971 )     1.50498240
  WF centre and spread    9  ( -0.000001,  8.214823,  1.959639 )     1.41780804
  WF centre and spread   10  ( -0.000001,  8.214952,  1.986788 )     1.50516247
  WF centre and spread   11  ( -0.000001,  0.060603,  1.944736 )     1.62900252
  WF centre and spread   12  ( -0.000000,  0.060458,  1.981114 )     1.62820260
  WF centre and spread   13  ( -0.000000, -0.037757,  1.963345 )     1.73537201
  WF centre and spread   14  ( -0.000000,  9.833246,  0.018256 )     1.62899489
  WF centre and spread   15  ( -0.000001,  9.833391, -0.018122 )     1.62819499
  WF centre and spread   16  ( -0.000001,  9.931610, -0.000353 )     1.73534810
  WF centre and spread   17  ( -0.000000,  6.593742,  0.017532 )     1.63370272
  WF centre and spread   18  ( -0.000001,  6.593594, -0.017423 )     1.63291465
  WF centre and spread   19  ( -0.000001,  6.508166, -0.000335 )     1.75399509
  WF centre and spread   20  ( -0.000001,  3.300152,  1.945460 )     1.63368932
  WF centre and spread   21  ( -0.000000,  3.300299,  1.980415 )     1.63290125
  WF centre and spread   22  ( -0.000000,  3.385700,  1.963327 )     1.75403596
  Sum of centres and spreads ( -0.000014,108.832489, 21.592908 )    34.79996115
 
     23    -0.195E-05     0.0018505180       34.7999665251       0.65  <-- CONV
        O_D=      0.0320209 O_OD=      1.6132879 O_TOT=     34.7999665 <-- SPRD
 Delta: O_D=  0.2235004E-05 O_OD= -0.4181856E-05 O_TOT= -0.1946852E-05 <-- DLTA
 ------------------------------------------------------------------------------
 Cycle:     24
  WF centre and spread    1  ( -0.000000,  1.679473, -0.102216 )     1.46512738
  WF centre and spread    2  ( -0.000000,  1.679695,  0.097482 )     1.49379754
  WF centre and spread    3  ( -0.000000,  1.678918,  0.024022 )     1.50507789
  WF centre and spread    4  ( -0.000000,  1.679030,  0.003385 )     1.41782467
  WF centre and spread    5  ( -0.000000,  1.678915, -0.023799 )     1.50524092
  WF centre and spread    6  ( -0.000001,  8.214379,  2.065206 )     1.46509967
  WF centre and spread    7  ( -0.000001,  8.214156,  1.865511 )     1.49376591
  WF centre and spread    8  ( -0.000001,  8.214948,  1.938970 )     1.50502739
  WF centre and spread    9  ( -0.000001,  8.214823,  1.959607 )     1.41780503
  WF centre and spread   10  ( -0.000001,  8.214951,  1.986791 )     1.50519033
  WF centre and spread   11  ( -0.000001,  0.060602,  1.944712 )     1.62894004
  WF centre and spread   12  ( -0.000000,  0.060456,  1.981118 )     1.62814358
  WF centre and spread   13  ( -0.000000, -0.037757,  1.963367 )     1.73539839
  WF centre and spread   14  ( -0.000000,  9.833247,  0.018280 )     1.62893240
  WF centre and spread   15  ( -0.000001,  9.833392, -0.018126 )     1.62813597
  WF centre and spread   16  ( -0.000001,  9.931609, -0.000375 )     1.73537449
  WF centre and spread   17  ( -0.000000,  6.593741,  0.017551 )     1.63364337
  WF centre and spread   18  ( -0.000001,  6.593593, -0.017427 )     1.63285820
  WF centre and spread   19  ( -0.000001,  6.508167, -0.000354 )     1.75402871
  WF centre and spread   20  ( -0.000001,  3.300153,  1.945440 )     1.63363000
  WF centre and spread   21  ( -0.000000,  3.300300,  1.980419 )     1.63284483
  WF centre and spread   22  ( -0.000000,  3.385698,  1.963345 )     1.75406959
  Sum of centres and spreads ( -0.000014,108.832489, 21.592908 )    34.79995629
 
     24    -0.486E-05     0.0026456580       34.7999616660       0.67  <-- CONV
        O_D=      0.0320267 O_OD=      1.6132772 O_TOT=     34.7999617 <-- SPRD
 Delta: O_D=  0.5825452E-05 O_OD= -0.1068455E-04 O_TOT= -0.4859101E-05 <-- DLTA
 ------------------------------------------------------------------------------
 Cycle:     25
  WF centre and spread    1  ( -0.000000,  1.679473, -0.102217 )     1.46512661
  WF centre and spread    2  ( -0.000000,  1.679695,  0.097483 )     1.49380028
  WF centre and spread    3  ( -0.000000,  1.678918,  0.024021 )     1.50507422
  WF centre and spread    4  ( -0.000000,  1.679029,  0.003385 )     1.41781866
  WF centre and spread    5  ( -0.000000,  1.678915, -0.023799 )     1.50523935
  WF centre and spread    6  ( -0.000001,  8.214379,  2.065207 )     1.46509889
  WF centre and spread    7  ( -0.000001,  8.214156,  1.865510 )     1.49376866
  WF centre and spread    8  ( -0.000001,  8.214948,  1.938970 )     1.50502371
  WF centre and spread    9  ( -0.000001,  8.214823,  1.959607 )     1.41779902
  WF centre and spread   10  ( -0.000001,  8.214951,  1.986790 )     1.50518876
  WF centre and spread   11  ( -0.000001,  0.060602,  1.944712 )     1.62894684
  WF centre and spread   12  ( -0.000000,  0.060457,  1.981117 )     1.62814769
  WF centre and spread   13  ( -0.000000, -0.037757,  1.963367 )     1.73539393
  WF centre and spread   14  ( -0.000000,  9.833246,  0.018280 )     1.62893921
  WF centre and spread   15  ( -0.000001,  9.833392, -0.018126 )     1.62814007
  WF centre and spread   16  ( -0.000001,  9.931609, -0.000376 )     1.73537002
  WF centre and spread   17  ( -0.000000,  6.593741,  0.017551 )     1.63365008
  WF centre and spread   18  ( -0.000001,  6.593594, -0.017427 )     1.63286250
  WF centre and spread   19  ( -0.000001,  6.508167, -0.000354 )     1.75401853
  WF centre and spread   20  ( -0.000001,  3.300153,  1.945440 )     1.63363670
  WF centre and spread   21  ( -0.000000,  3.300300,  1.980419 )     1.63284913
  WF centre and spread   22  ( -0.000000,  3.385699,  1.963346 )     1.75405942
  Sum of centres and spreads ( -0.000014,108.832489, 21.592908 )    34.79995229
 
     25    -0.400E-05     0.0043771664       34.7999576652       0.70  <-- CONV
        O_D=      0.0320271 O_OD=      1.6132728 O_TOT=     34.7999577 <-- SPRD
 Delta: O_D=  0.4203778E-06 O_OD= -0.4421147E-05 O_TOT= -0.4000769E-05 <-- DLTA
 ------------------------------------------------------------------------------
 Cycle:     26
  WF centre and spread    1  ( -0.000000,  1.679473, -0.102219 )     1.46512532
  WF centre and spread    2  ( -0.000000,  1.679695,  0.097484 )     1.49380451
  WF centre and spread    3  ( -0.000000,  1.678918,  0.024021 )     1.50506629
  WF centre and spread    4  ( -0.000000,  1.679029,  0.003386 )     1.41780763
  WF centre and spread    5  ( -0.000000,  1.678915, -0.023798 )     1.50523516
  WF centre and spread    6  ( -0.000001,  8.214379,  2.065209 )     1.46509760
  WF centre and spread    7  ( -0.000001,  8.214156,  1.865509 )     1.49377288
  WF centre and spread    8  ( -0.000001,  8.214948,  1.938971 )     1.50501578
  WF centre and spread    9  ( -0.000001,  8.214823,  1.959605 )     1.41778799
  WF centre and spread   10  ( -0.000001,  8.214951,  1.986790 )     1.50518457
  WF centre and spread   11  ( -0.000001,  0.060603,  1.944712 )     1.62895903
  WF centre and spread   12  ( -0.000000,  0.060457,  1.981116 )     1.62815717
  WF centre and spread   13  ( -0.000000, -0.037756,  1.963368 )     1.73538506
  WF centre and spread   14  ( -0.000000,  9.833246,  0.018280 )     1.62895140
  WF centre and spread   15  ( -0.000001,  9.833391, -0.018125 )     1.62814955
  WF centre and spread   16  ( -0.000001,  9.931609, -0.000377 )     1.73536116
  WF centre and spread   17  ( -0.000000,  6.593741,  0.017551 )     1.63366207
  WF centre and spread   18  ( -0.000001,  6.593594, -0.017426 )     1.63287187
  WF centre and spread   19  ( -0.000001,  6.508167, -0.000355 )     1.75400369
  WF centre and spread   20  ( -0.000001,  3.300152,  1.945440 )     1.63364869
  WF centre and spread   21  ( -0.000000,  3.300300,  1.980418 )     1.63285849
  WF centre and spread   22  ( -0.000000,  3.385699,  1.963346 )     1.75404456
  Sum of centres and spreads ( -0.000014,108.832489, 21.592908 )    34.79995046
 
     26    -0.184E-05     0.0024546085       34.7999558299       0.73  <-- CONV
        O_D=      0.0320281 O_OD=      1.6132700 O_TOT=     34.7999558 <-- SPRD
 Delta: O_D=  0.9686170E-06 O_OD= -0.2803951E-05 O_TOT= -0.1835334E-05 <-- DLTA
 ------------------------------------------------------------------------------
 Cycle:     27
  WF centre and spread    1  ( -0.000000,  1.679473, -0.102222 )     1.46512277
  WF centre and spread    2  ( -0.000000,  1.679695,  0.097486 )     1.49380873
  WF centre and spread    3  ( -0.000000,  1.678918,  0.024020 )     1.50505126
  WF centre and spread    4  ( -0.000000,  1.679029,  0.003389 )     1.41778876
  WF centre and spread    5  ( -0.000000,  1.678916, -0.023798 )     1.50522607
  WF centre and spread    6  ( -0.000001,  8.214379,  2.065211 )     1.46509505
  WF centre and spread    7  ( -0.000001,  8.214156,  1.865507 )     1.49377710
  WF centre and spread    8  ( -0.000001,  8.214948,  1.938971 )     1.50500075
  WF centre and spread    9  ( -0.000001,  8.214823,  1.959603 )     1.41776911
  WF centre and spread   10  ( -0.000001,  8.214950,  1.986789 )     1.50517547
  WF centre and spread   11  ( -0.000001,  0.060603,  1.944711 )     1.62897804
  WF centre and spread   12  ( -0.000000,  0.060458,  1.981115 )     1.62817536
  WF centre and spread   13  ( -0.000000, -0.037756,  1.963370 )     1.73537090
  WF centre and spread   14  ( -0.000000,  9.833245,  0.018281 )     1.62897041
  WF centre and spread   15  ( -0.000001,  9.833390, -0.018123 )     1.62816775
  WF centre and spread   16  ( -0.000001,  9.931608, -0.000378 )     1.73534700
  WF centre and spread   17  ( -0.000000,  6.593742,  0.017552 )     1.63368059
  WF centre and spread   18  ( -0.000001,  6.593595, -0.017424 )     1.63288924
  WF centre and spread   19  ( -0.000001,  6.508167, -0.000356 )     1.75398537
  WF centre and spread   20  ( -0.000001,  3.300151,  1.945439 )     1.63366719
  WF centre and spread   21  ( -0.000000,  3.300299,  1.980416 )     1.63287585
  WF centre and spread   22  ( -0.000000,  3.385698,  1.963348 )     1.75402622
  Sum of centres and spreads ( -0.000014,108.832489, 21.592908 )    34.79994899
 
     27    -0.146E-05     0.0019048539       34.7999543653       0.76  <-- CONV
        O_D=      0.0320299 O_OD=      1.6132667 O_TOT=     34.7999544 <-- SPRD
 Delta: O_D=  0.1859166E-05 O_OD= -0.3323733E-05 O_TOT= -0.1464567E-05 <-- DLTA
 ------------------------------------------------------------------------------
 Cycle:     28
  WF centre and spread    1  ( -0.000000,  1.679473, -0.102225 )     1.46511866
  WF centre and spread    2  ( -0.000000,  1.679695,  0.097489 )     1.49380911
  WF centre and spread    3  ( -0.000000,  1.678919,  0.024020 )     1.50503169
  WF centre and spread    4  ( -0.000000,  1.679029,  0.003391 )     1.41776408
  WF centre and spread    5  ( -0.000000,  1.678916, -0.023797 )     1.50521358
  WF centre and spread    6  ( -0.000001,  8.214379,  2.065215 )     1.46509093
  WF centre and spread    7  ( -0.000001,  8.214156,  1.865504 )     1.49377747
  WF centre and spread    8  ( -0.000001,  8.214947,  1.938972 )     1.50498116
  WF centre and spread    9  ( -0.000001,  8.214824,  1.959600 )     1.41774443
  WF centre and spread   10  ( -0.000001,  8.214950,  1.986789 )     1.50516299
  WF centre and spread   11  ( -0.000001,  0.060604,  1.944709 )     1.62900003
  WF centre and spread   12  ( -0.000000,  0.060459,  1.981113 )     1.62819975
  WF centre and spread   13  ( -0.000000, -0.037755,  1.963372 )     1.73535614
  WF centre and spread   14  ( -0.000000,  9.833244,  0.018283 )     1.62899240
  WF centre and spread   15  ( -0.000001,  9.833390, -0.018121 )     1.62819214
  WF centre and spread   16  ( -0.000001,  9.931607, -0.000381 )     1.73533224
  WF centre and spread   17  ( -0.000000,  6.593743,  0.017553 )     1.63370178
  WF centre and spread   18  ( -0.000001,  6.593596, -0.017422 )     1.63291209
  WF centre and spread   19  ( -0.000001,  6.508168, -0.000358 )     1.75396957
  WF centre and spread   20  ( -0.000001,  3.300150,  1.945438 )     1.63368837
  WF centre and spread   21  ( -0.000000,  3.300298,  1.980414 )     1.63289869
  WF centre and spread   22  ( -0.000000,  3.385698,  1.963350 )     1.75401042
  Sum of centres and spreads ( -0.000014,108.832489, 21.592908 )    34.79994772
 
     28    -0.127E-05     0.0017627828       34.7999530984       0.79  <-- CONV
        O_D=      0.0320327 O_OD=      1.6132626 O_TOT=     34.7999531 <-- SPRD
 Delta: O_D=  0.2780841E-05 O_OD= -0.4047701E-05 O_TOT= -0.1266860E-05 <-- DLTA
 ------------------------------------------------------------------------------
 Cycle:     29
  WF centre and spread    1  ( -0.000000,  1.679472, -0.102233 )     1.46511098
  WF centre and spread    2  ( -0.000000,  1.679695,  0.097494 )     1.49380224
  WF centre and spread    3  ( -0.000000,  1.678920,  0.024019 )     1.50500045
  WF centre and spread    4  ( -0.000000,  1.679028,  0.003397 )     1.41772152
  WF centre and spread    5  ( -0.000000,  1.678916, -0.023796 )     1.50519349
  WF centre and spread    6  ( -0.000001,  8.214379,  2.065222 )     1.46508325
  WF centre and spread    7  ( -0.000001,  8.214156,  1.865500 )     1.49377059
  WF centre and spread    8  ( -0.000001,  8.214946,  1.938972 )     1.50494991
  WF centre and spread    9  ( -0.000001,  8.214824,  1.959595 )     1.41770186
  WF centre and spread   10  ( -0.000001,  8.214950,  1.986788 )     1.50514289
  WF centre and spread   11  ( -0.000001,  0.060605,  1.944705 )     1.62903421
  WF centre and spread   12  ( -0.000000,  0.060460,  1.981110 )     1.62824003
[...]
  WF centre and spread   12  ( -0.000000,  0.060461,  1.981112 )     1.62823033
  WF centre and spread   13  ( -0.000000, -0.037752,  1.963633 )     1.73534490
  WF centre and spread   14  ( -0.000000,  9.833247,  0.018543 )     1.62900870
  WF centre and spread   15  ( -0.000001,  9.833387, -0.018121 )     1.62822272
  WF centre and spread   16  ( -0.000001,  9.931605, -0.000641 )     1.73532099
  WF centre and spread   17  ( -0.000000,  6.593741,  0.017770 )     1.63371650
  WF centre and spread   18  ( -0.000001,  6.593598, -0.017422 )     1.63293971
  WF centre and spread   19  ( -0.000001,  6.508169, -0.000575 )     1.75396105
  WF centre and spread   20  ( -0.000001,  3.300153,  1.945222 )     1.63370309
  WF centre and spread   21  ( -0.000000,  3.300296,  1.980414 )     1.63292630
  WF centre and spread   22  ( -0.000000,  3.385696,  1.963566 )     1.75400191
  Sum of centres and spreads ( -0.000014,108.832489, 21.592908 )    34.79983635
 
     93    -0.124E-05     0.0017029354       34.7998417265       2.60  <-- CONV
        O_D=      0.0321721 O_OD=      1.6130118 O_TOT=     34.7998417 <-- SPRD
 Delta: O_D=  0.3146705E-06 O_OD= -0.1552560E-05 O_TOT= -0.1237889E-05 <-- DLTA
 ------------------------------------------------------------------------------
 Cycle:     94
  WF centre and spread    1  ( -0.000000,  1.679448, -0.102617 )     1.46575912
  WF centre and spread    2  ( -0.000000,  1.679682,  0.097494 )     1.49374892
  WF centre and spread    3  ( -0.000000,  1.678946,  0.024022 )     1.50501726
  WF centre and spread    4  ( -0.000000,  1.679025,  0.003764 )     1.41710578
  WF centre and spread    5  ( -0.000000,  1.678929, -0.023798 )     1.50520294
  WF centre and spread    6  ( -0.000001,  8.214404,  2.065606 )     1.46573127
  WF centre and spread    7  ( -0.000001,  8.214170,  1.865500 )     1.49371728
  WF centre and spread    8  ( -0.000001,  8.214919,  1.938970 )     1.50496673
  WF centre and spread    9  ( -0.000001,  8.214827,  1.959227 )     1.41708624
  WF centre and spread   10  ( -0.000001,  8.214936,  1.986789 )     1.50515233
  WF centre and spread   11  ( -0.000001,  0.060601,  1.944445 )     1.62900901
  WF centre and spread   12  ( -0.000000,  0.060462,  1.981113 )     1.62822277
  WF centre and spread   13  ( -0.000000, -0.037753,  1.963638 )     1.73534758
  WF centre and spread   14  ( -0.000000,  9.833248,  0.018547 )     1.62900138
  WF centre and spread   15  ( -0.000001,  9.833387, -0.018121 )     1.62821516
  WF centre and spread   16  ( -0.000001,  9.931606, -0.000646 )     1.73532368
  WF centre and spread   17  ( -0.000000,  6.593740,  0.017773 )     1.63370897
  WF centre and spread   18  ( -0.000001,  6.593598, -0.017422 )     1.63293299
  WF centre and spread   19  ( -0.000001,  6.508169, -0.000579 )     1.75396473
  WF centre and spread   20  ( -0.000001,  3.300153,  1.945218 )     1.63369557
  WF centre and spread   21  ( -0.000000,  3.300295,  1.980414 )     1.63291959
  WF centre and spread   22  ( -0.000000,  3.385697,  1.963570 )     1.75400562
  Sum of centres and spreads ( -0.000014,108.832489, 21.592908 )    34.79983493
 
     94    -0.143E-05     0.0017747316       34.7998402991       2.63  <-- CONV
        O_D=      0.0321732 O_OD=      1.6130093 O_TOT=     34.7998403 <-- SPRD
 Delta: O_D=  0.1102949E-05 O_OD= -0.2530385E-05 O_TOT= -0.1427436E-05 <-- DLTA
 ------------------------------------------------------------------------------
 Cycle:     95
  WF centre and spread    1  ( -0.000000,  1.679448, -0.102626 )     1.46579015
  WF centre and spread    2  ( -0.000000,  1.679681,  0.097493 )     1.49372398
  WF centre and spread    3  ( -0.000000,  1.678947,  0.024022 )     1.50502478
  WF centre and spread    4  ( -0.000000,  1.679025,  0.003775 )     1.41711160
  WF centre and spread    5  ( -0.000000,  1.678930, -0.023798 )     1.50520588
  WF centre and spread    6  ( -0.000001,  8.214404,  2.065616 )     1.46576229
  WF centre and spread    7  ( -0.000001,  8.214170,  1.865501 )     1.49369235
  WF centre and spread    8  ( -0.000001,  8.214919,  1.938970 )     1.50497425
  WF centre and spread    9  ( -0.000001,  8.214827,  1.959217 )     1.41709206
  WF centre and spread   10  ( -0.000001,  8.214936,  1.986789 )     1.50515528
  WF centre and spread   11  ( -0.000001,  0.060600,  1.944438 )     1.62899847
  WF centre and spread   12  ( -0.000000,  0.060462,  1.981113 )     1.62821718
  WF centre and spread   13  ( -0.000000, -0.037753,  1.963644 )     1.73535009
  WF centre and spread   14  ( -0.000000,  9.833248,  0.018554 )     1.62899084
  WF centre and spread   15  ( -0.000001,  9.833387, -0.018122 )     1.62820957
  WF centre and spread   16  ( -0.000001,  9.931606, -0.000653 )     1.73532618
  WF centre and spread   17  ( -0.000000,  6.593740,  0.017778 )     1.63369918
  WF centre and spread   18  ( -0.000001,  6.593598, -0.017422 )     1.63292815
  WF centre and spread   19  ( -0.000001,  6.508169, -0.000584 )     1.75396980
  WF centre and spread   20  ( -0.000001,  3.300154,  1.945213 )     1.63368579
  WF centre and spread   21  ( -0.000000,  3.300295,  1.980414 )     1.63291475
  WF centre and spread   22  ( -0.000000,  3.385697,  1.963576 )     1.75401070
  Sum of centres and spreads ( -0.000014,108.832489, 21.592908 )    34.79983335
 
     95    -0.158E-05     0.0018362961       34.7998387227       2.66  <-- CONV
        O_D=      0.0321754 O_OD=      1.6130056 O_TOT=     34.7998387 <-- SPRD
 Delta: O_D=  0.2136852E-05 O_OD= -0.3713288E-05 O_TOT= -0.1576436E-05 <-- DLTA
 ------------------------------------------------------------------------------
 Cycle:     96
  WF centre and spread    1  ( -0.000000,  1.679446, -0.102641 )     1.46583226
  WF centre and spread    2  ( -0.000000,  1.679680,  0.097491 )     1.49370900
  WF centre and spread    3  ( -0.000000,  1.678948,  0.024022 )     1.50503324
  WF centre and spread    4  ( -0.000000,  1.679025,  0.003790 )     1.41710012
  WF centre and spread    5  ( -0.000000,  1.678931, -0.023798 )     1.50521020
  WF centre and spread    6  ( -0.000001,  8.214405,  2.065631 )     1.46580440
  WF centre and spread    7  ( -0.000001,  8.214171,  1.865502 )     1.49367737
  WF centre and spread    8  ( -0.000001,  8.214918,  1.938970 )     1.50498271
  WF centre and spread    9  ( -0.000001,  8.214827,  1.959202 )     1.41708058
  WF centre and spread   10  ( -0.000001,  8.214935,  1.986790 )     1.50515960
  WF centre and spread   11  ( -0.000001,  0.060600,  1.944428 )     1.62898627
  WF centre and spread   12  ( -0.000000,  0.060462,  1.981114 )     1.62821001
  WF centre and spread   13  ( -0.000000, -0.037753,  1.963655 )     1.73535268
  WF centre and spread   14  ( -0.000000,  9.833249,  0.018564 )     1.62897864
  WF centre and spread   15  ( -0.000001,  9.833387, -0.018122 )     1.62820241
  WF centre and spread   16  ( -0.000001,  9.931606, -0.000663 )     1.73532878
  WF centre and spread   17  ( -0.000000,  6.593739,  0.017787 )     1.63368841
  WF centre and spread   18  ( -0.000001,  6.593598, -0.017423 )     1.63292161
  WF centre and spread   19  ( -0.000001,  6.508169, -0.000593 )     1.75397433
  WF centre and spread   20  ( -0.000001,  3.300154,  1.945204 )     1.63367502
  WF centre and spread   21  ( -0.000000,  3.300295,  1.980415 )     1.63290821
  WF centre and spread   22  ( -0.000000,  3.385696,  1.963585 )     1.75401522
  Sum of centres and spreads ( -0.000014,108.832489, 21.592908 )    34.79983105
 
     96    -0.230E-05     0.0021025511       34.7998364231       2.69  <-- CONV
        O_D=      0.0321799 O_OD=      1.6129988 O_TOT=     34.7998364 <-- SPRD
 Delta: O_D=  0.4523333E-05 O_OD= -0.6822928E-05 O_TOT= -0.2299596E-05 <-- DLTA
 ------------------------------------------------------------------------------
 Cycle:     97
  WF centre and spread    1  ( -0.000000,  1.679446, -0.102642 )     1.46582877
  WF centre and spread    2  ( -0.000000,  1.679680,  0.097491 )     1.49372012
  WF centre and spread    3  ( -0.000000,  1.678948,  0.024022 )     1.50503186
  WF centre and spread    4  ( -0.000000,  1.679025,  0.003790 )     1.41709000
  WF centre and spread    5  ( -0.000000,  1.678931, -0.023798 )     1.50521026
  WF centre and spread    6  ( -0.000001,  8.214405,  2.065632 )     1.46580091
  WF centre and spread    7  ( -0.000001,  8.214171,  1.865502 )     1.49368849
  WF centre and spread    8  ( -0.000001,  8.214918,  1.938970 )     1.50498133
  WF centre and spread    9  ( -0.000001,  8.214827,  1.959201 )     1.41707047
  WF centre and spread   10  ( -0.000001,  8.214935,  1.986790 )     1.50515966
  WF centre and spread   11  ( -0.000001,  0.060600,  1.944427 )     1.62898996
  WF centre and spread   12  ( -0.000000,  0.060462,  1.981114 )     1.62820962
  WF centre and spread   13  ( -0.000000, -0.037753,  1.963655 )     1.73535221
  WF centre and spread   14  ( -0.000000,  9.833249,  0.018565 )     1.62898233
  WF centre and spread   15  ( -0.000001,  9.833387, -0.018122 )     1.62820201
  WF centre and spread   16  ( -0.000001,  9.931605, -0.000664 )     1.73532830
  WF centre and spread   17  ( -0.000000,  6.593739,  0.017788 )     1.63369170
  WF centre and spread   18  ( -0.000001,  6.593598, -0.017423 )     1.63292093
  WF centre and spread   19  ( -0.000001,  6.508169, -0.000594 )     1.75397157
  WF centre and spread   20  ( -0.000001,  3.300154,  1.945204 )     1.63367831
  WF centre and spread   21  ( -0.000000,  3.300295,  1.980415 )     1.63290754
  WF centre and spread   22  ( -0.000000,  3.385696,  1.963585 )     1.75401246
  Sum of centres and spreads ( -0.000014,108.832489, 21.592908 )    34.79982882
 
     97    -0.223E-05     0.0031985417       34.7998341904       2.72  <-- CONV
        O_D=      0.0321806 O_OD=      1.6129958 O_TOT=     34.7998342 <-- SPRD
 Delta: O_D=  0.7453387E-06 O_OD= -0.2978050E-05 O_TOT= -0.2232711E-05 <-- DLTA
 ------------------------------------------------------------------------------
 Cycle:     98
  WF centre and spread    1  ( -0.000000,  1.679446, -0.102643 )     1.46582207
  WF centre and spread    2  ( -0.000000,  1.679681,  0.097492 )     1.49374376
  WF centre and spread    3  ( -0.000000,  1.678948,  0.024022 )     1.50502814
  WF centre and spread    4  ( -0.000000,  1.679025,  0.003791 )     1.41706801
  WF centre and spread    5  ( -0.000000,  1.678930, -0.023798 )     1.50520977
  WF centre and spread    6  ( -0.000001,  8.214405,  2.065633 )     1.46579421
  WF centre and spread    7  ( -0.000001,  8.214171,  1.865501 )     1.49371213
  WF centre and spread    8  ( -0.000001,  8.214917,  1.938970 )     1.50497761
  WF centre and spread    9  ( -0.000001,  8.214827,  1.959201 )     1.41704847
  WF centre and spread   10  ( -0.000001,  8.214935,  1.986789 )     1.50515916
  WF centre and spread   11  ( -0.000001,  0.060600,  1.944426 )     1.62899633
  WF centre and spread   12  ( -0.000000,  0.060461,  1.981113 )     1.62821060
  WF centre and spread   13  ( -0.000000, -0.037753,  1.963656 )     1.73535100
  WF centre and spread   14  ( -0.000000,  9.833248,  0.018566 )     1.62898870
  WF centre and spread   15  ( -0.000001,  9.833387, -0.018122 )     1.62820299
  WF centre and spread   16  ( -0.000001,  9.931605, -0.000665 )     1.73532709
  WF centre and spread   17  ( -0.000000,  6.593740,  0.017789 )     1.63369776
  WF centre and spread   18  ( -0.000001,  6.593598, -0.017423 )     1.63292142
  WF centre and spread   19  ( -0.000001,  6.508169, -0.000594 )     1.75396739
  WF centre and spread   20  ( -0.000001,  3.300154,  1.945203 )     1.63368436
  WF centre and spread   21  ( -0.000000,  3.300296,  1.980415 )     1.63290802
  WF centre and spread   22  ( -0.000000,  3.385696,  1.963586 )     1.75400827
  Sum of centres and spreads ( -0.000014,108.832489, 21.592908 )    34.79982726
 
     98    -0.156E-05     0.0020790512       34.7998326321       2.74  <-- CONV
        O_D=      0.0321823 O_OD=      1.6129925 O_TOT=     34.7998326 <-- SPRD
 Delta: O_D=  0.1693521E-05 O_OD= -0.3251768E-05 O_TOT= -0.1558247E-05 <-- DLTA
 ------------------------------------------------------------------------------
 Cycle:     99
  WF centre and spread    1  ( -0.000000,  1.679446, -0.102645 )     1.46581378
  WF centre and spread    2  ( -0.000000,  1.679681,  0.097493 )     1.49377720
  WF centre and spread    3  ( -0.000000,  1.678949,  0.024022 )     1.50502129
  WF centre and spread    4  ( -0.000000,  1.679025,  0.003793 )     1.41703484
  WF centre and spread    5  ( -0.000000,  1.678931, -0.023798 )     1.50520795
  WF centre and spread    6  ( -0.000001,  8.214405,  2.065635 )     1.46578593
  WF centre and spread    7  ( -0.000001,  8.214171,  1.865501 )     1.49374556
  WF centre and spread    8  ( -0.000001,  8.214917,  1.938970 )     1.50497076
  WF centre and spread    9  ( -0.000001,  8.214827,  1.959199 )     1.41701531
  WF centre and spread   10  ( -0.000001,  8.214935,  1.986789 )     1.50515735
  WF centre and spread   11  ( -0.000001,  0.060600,  1.944423 )     1.62900224
  WF centre and spread   12  ( -0.000000,  0.060461,  1.981113 )     1.62821555
  WF centre and spread   13  ( -0.000000, -0.037752,  1.963658 )     1.73534899
  WF centre and spread   14  ( -0.000000,  9.833248,  0.018569 )     1.62899461
  WF centre and spread   15  ( -0.000001,  9.833388, -0.018122 )     1.62820794
  WF centre and spread   16  ( -0.000001,  9.931604, -0.000667 )     1.73532509
  WF centre and spread   17  ( -0.000000,  6.593740,  0.017791 )     1.63370391
  WF centre and spread   18  ( -0.000001,  6.593598, -0.017422 )     1.63292573
  WF centre and spread   19  ( -0.000001,  6.508170, -0.000596 )     1.75396407
  WF centre and spread   20  ( -0.000001,  3.300154,  1.945201 )     1.63369051
  WF centre and spread   21  ( -0.000000,  3.300296,  1.980414 )     1.63291232
  WF centre and spread   22  ( -0.000000,  3.385695,  1.963587 )     1.75400492
  Sum of centres and spreads ( -0.000014,108.832489, 21.592908 )    34.79982584
 
     99    -0.142E-05     0.0018367340       34.7998312117       2.77  <-- CONV
        O_D=      0.0321850 O_OD=      1.6129885 O_TOT=     34.7998312 <-- SPRD
 Delta: O_D=  0.2628007E-05 O_OD= -0.4048394E-05 O_TOT= -0.1420387E-05 <-- DLTA
 ------------------------------------------------------------------------------
 Cycle:    100
  WF centre and spread    1  ( -0.000000,  1.679446, -0.102648 )     1.46580745
  WF centre and spread    2  ( -0.000000,  1.679681,  0.097494 )     1.49380780
  WF centre and spread    3  ( -0.000000,  1.678949,  0.024021 )     1.50501374
  WF centre and spread    4  ( -0.000000,  1.679025,  0.003795 )     1.41700069
  WF centre and spread    5  ( -0.000000,  1.678931, -0.023798 )     1.50520564
  WF centre and spread    6  ( -0.000001,  8.214406,  2.065638 )     1.46577959
  WF centre and spread    7  ( -0.000001,  8.214171,  1.865500 )     1.49377616
  WF centre and spread    8  ( -0.000001,  8.214917,  1.938970 )     1.50496321
  WF centre and spread    9  ( -0.000001,  8.214828,  1.959196 )     1.41698116
  WF centre and spread   10  ( -0.000001,  8.214935,  1.986789 )     1.50515503
  WF centre and spread   11  ( -0.000001,  0.060600,  1.944420 )     1.62900486
  WF centre and spread   12  ( -0.000000,  0.060460,  1.981113 )     1.62822404
  WF centre and spread   13  ( -0.000000, -0.037750,  1.963661 )     1.73534717
  WF centre and spread   14  ( -0.000000,  9.833248,  0.018572 )     1.62899723
  WF centre and spread   15  ( -0.000001,  9.833388, -0.018121 )     1.62821643
  WF centre and spread   16  ( -0.000001,  9.931603, -0.000669 )     1.73532327
  WF centre and spread   17  ( -0.000000,  6.593740,  0.017794 )     1.63370710
  WF centre and spread   18  ( -0.000001,  6.593597, -0.017422 )     1.63293351
  WF centre and spread   19  ( -0.000001,  6.508171, -0.000598 )     1.75396297
  WF centre and spread   20  ( -0.000001,  3.300153,  1.945198 )     1.63369369
  WF centre and spread   21  ( -0.000000,  3.300296,  1.980414 )     1.63292009
  WF centre and spread   22  ( -0.000000,  3.385695,  1.963589 )     1.75400381
  Sum of centres and spreads ( -0.000014,108.832489, 21.592908 )    34.79982463
 
    100    -0.121E-05     0.0017611469       34.7998300027       2.80  <-- CONV
        O_D=      0.0321879 O_OD=      1.6129843 O_TOT=     34.7998300 <-- SPRD
 Delta: O_D=  0.2987628E-05 O_OD= -0.4196702E-05 O_TOT= -0.1209074E-05 <-- DLTA
 ------------------------------------------------------------------------------

 Writing checkpoint file wannier90.chk... done

 Final State
  WF centre and spread    1  ( -0.000000,  1.679446, -0.102648 )     1.46580745
  WF centre and spread    2  ( -0.000000,  1.679681,  0.097494 )     1.49380780
  WF centre and spread    3  ( -0.000000,  1.678949,  0.024021 )     1.50501374
  WF centre and spread    4  ( -0.000000,  1.679025,  0.003795 )     1.41700069
  WF centre and spread    5  ( -0.000000,  1.678931, -0.023798 )     1.50520564
  WF centre and spread    6  ( -0.000001,  8.214406,  2.065638 )     1.46577959
  WF centre and spread    7  ( -0.000001,  8.214171,  1.865500 )     1.49377616
  WF centre and spread    8  ( -0.000001,  8.214917,  1.938970 )     1.50496321
  WF centre and spread    9  ( -0.000001,  8.214828,  1.959196 )     1.41698116
  WF centre and spread   10  ( -0.000001,  8.214935,  1.986789 )     1.50515503
  WF centre and spread   11  ( -0.000001,  0.060600,  1.944420 )     1.62900486
  WF centre and spread   12  ( -0.000000,  0.060460,  1.981113 )     1.62822404
  WF centre and spread   13  ( -0.000000, -0.037750,  1.963661 )     1.73534717
  WF centre and spread   14  ( -0.000000,  9.833248,  0.018572 )     1.62899723
  WF centre and spread   15  ( -0.000001,  9.833388, -0.018121 )     1.62821643
  WF centre and spread   16  ( -0.000001,  9.931603, -0.000669 )     1.73532327
  WF centre and spread   17  ( -0.000000,  6.593740,  0.017794 )     1.63370710
  WF centre and spread   18  ( -0.000001,  6.593597, -0.017422 )     1.63293351
  WF centre and spread   19  ( -0.000001,  6.508171, -0.000598 )     1.75396297
  WF centre and spread   20  ( -0.000001,  3.300153,  1.945198 )     1.63369369
  WF centre and spread   21  ( -0.000000,  3.300296,  1.980414 )     1.63292009
  WF centre and spread   22  ( -0.000000,  3.385695,  1.963589 )     1.75400381
  Sum of centres and spreads ( -0.000014,108.832489, 21.592908 )    34.79982463
 
         Spreads (Ang^2)       Omega I      =    33.154657762
        ================       Omega D      =     0.032187939
                               Omega OD     =     1.612984302
    Final Spread (Ang^2)       Omega Total  =    34.799830003
 ------------------------------------------------------------------------------
 Time for wannierise           11.652 (sec)

 Writing checkpoint file wannier90.chk... done

 *---------------------------------------------------------------------------*
 |                               PLOTTING                                    |
 *---------------------------------------------------------------------------*
 
 Time for plotting              1.470 (sec)
 Total Execution Time          13.667 (sec)

 *===========================================================================*
 |                             TIMING INFORMATION                            |
 *===========================================================================*
 |    Tag                                                Ncalls      Time (s)|
 |---------------------------------------------------------------------------|
 |kmesh: get                                        :         1         0.038|
 |overlap: read                                     :         1         0.407|
 |wann: main                                        :         1        11.619|
 |plot: main                                        :         1         1.469|
 *---------------------------------------------------------------------------*
 
 All done: wannier90 exiting
