 
             +---------------------------------------------------+
             |                                                   |
             |                   WANNIER90                       |
             |                                                   |
             +---------------------------------------------------+
             |                                                   |
             |        Welcome to the Maximally-Localized         |
             |        Generalized Wannier Functions code         |
             |            http://www.wannier.org                 |
             |                                                   |
             |  Wannier90 v2.0 Authors:                          |
             |    Arash A. Mostofi  (Imperial College London)    |
             |    Giovanni Pizzi    (EPFL)                       |
             |    Ivo Souza         (Universidad del Pais Vasco) |
             |    Jonathan R. Yates (University of Oxford)       |
             |                                                   |
             |  Wannier90 Contributors:                          |
             |    Young-Su Lee       (KIST, S. Korea)            |
             |    Matthew Shelley    (Imperial College London)   |
             |    Nicolas Poilvert   (Penn State University)     |
             |    Raffaello Bianco   (Paris 6 and CNRS)          |
             |    Gabriele Sclauzero (ETH Zurich)                |
             |                                                   |
             |  Wannier77 Authors:                               |
             |    Nicola Marzari    (EPFL)                       |
             |    Ivo Souza         (Universidad del Pais Vasco) |
             |    David Vanderbilt  (Rutgers University)         |
             |                                                   |
             |  Please cite                                      |
             |                                                   |
             |  [ref] "Wannier90: A Tool for Obtaining Maximally |
             |         Localised Wannier Functions"              |
             |        A. A. Mostofi, J. R. Yates, Y.-S. Lee,     |
             |        I. Souza, D. Vanderbilt and N. Marzari     |
             |        Comput. Phys. Commun. 178, 685 (2008)      |
             |                                                   |
             |  in any publications arising from the use of      |
             |  this code. For the method please cite            |
             |                                                   |
             |  [ref] "Maximally Localized Generalised Wannier   |
             |         Functions for Composite Energy Bands"     |
             |         N. Marzari and D. Vanderbilt              |
             |         Phys. Rev. B 56 12847 (1997)              |
             |                                                   |
             |  [ref] "Maximally Localized Wannier Functions     |
             |         for Entangled Energy Bands"               |
             |         I. Souza, N. Marzari and D. Vanderbilt    |
             |         Phys. Rev. B 65 035109 (2001)             |
             |                                                   |
             |                                                   |
             | Copyright (c) 1996-2015                           |
             |        Arash A. Mostofi, Jonathan R. Yates,       |
             |        Young-Su Lee, Giovanni Pizzi, Ivo Souza,   |
             |        David Vanderbilt and Nicola Marzari        |
             |                                                   |
             |        Release: 2.0.1   2nd April 2015            |
             |                                                   |
             | This program is free software; you can            |
             | redistribute it and/or modify it under the terms  |
             | of the GNU General Public License as published by |
             | the Free Software Foundation; either version 2 of |
             | the License, or (at your option) any later version|
             |                                                   |
             | This program is distributed in the hope that it   |
             | will be useful, but WITHOUT ANY WARRANTY; without |
             | even the implied warranty of MERCHANTABILITY or   |
             | FITNESS FOR A PARTICULAR PURPOSE. See the GNU     |
             | General Public License for more details.          |
             |                                                   |
             | You should have received a copy of the GNU General|
             | Public License along with this program; if not,   |
             | write to the Free Software Foundation, Inc.,      |
             | 675 Mass Ave, Cambridge, MA 02139, USA.           |
             |                                                   |
             +---------------------------------------------------+
             |    Execution started on 30Jun2015 at 14:44:55     |
             +---------------------------------------------------+
 
 ******************************************************************************
 * -> Using CODATA 2006 constant values                                       *
 *    (http://physics.nist.gov/cuu/Constants/index.html)                      *
 * -> Using Bohr value from CODATA                                            *
 ******************************************************************************
 
 
                                    ------
                                    SYSTEM
                                    ------
 
                              Lattice Vectors (Ang)
                    a_1     3.400000   0.000000   0.000000
                    a_2     0.000000  29.893856   0.000000
                    a_3    -1.700000   0.000000   2.944486
 
                   Unit Cell Volume:     299.27494  (Ang^3)
 
                        Reciprocal-Space Vectors (Ang^-1)
                    b_1     1.847996   0.000000   1.066941
                    b_2     0.000000   0.210183   0.000000
                    b_3     0.000000   0.000000   2.133882
  
 *----------------------------------------------------------------------------*
 |   Site       Fractional Coordinate          Cartesian Coordinate (Ang)     |
 +----------------------------------------------------------------------------+
 | Mo   1   0.00000   0.05620   0.00000   |    0.00000   1.68000   0.00000    |
 | Mo   2   0.33333   0.27477   0.66667   |   -0.00000   8.21385   1.96299    |
 | S    1   0.33333   0.00000   0.66667   |   -0.00000   0.00000   1.96299    |
 | S    2   0.00000   0.33097   0.00000   |    0.00000   9.89385   0.00000    |
 | S    3   0.00000   0.21857   0.00000   |    0.00000   6.53387   0.00000    |
 | S    4   0.33333   0.11240   0.66667   |   -0.00000   3.36001   1.96299    |
 *----------------------------------------------------------------------------*
  
                                ------------
                                K-POINT GRID
                                ------------
  
             Grid size =  6 x  1 x  6      Total points =   36
  
  
 *---------------------------------- MAIN ------------------------------------*
 |  Number of Wannier Functions               :                22             |
 |  Number of input Bloch states              :                22             |
 |  Output verbosity (1=low, 5=high)          :                 1             |
 |  Timing Level (1=low, 5=high)              :                 1             |
 |  Optimisation (0=memory, 3=speed)          :                 3             |
 |  Length Unit                               :               Ang             |
 |  Post-processing setup (write *.nnkp)      :                 F             |
 |  Using Gamma-only branch of algorithms     :                 F             |
 *----------------------------------------------------------------------------*
 *------------------------------- WANNIERISE ---------------------------------*
 |  Total number of iterations                :               100             |
 |  Number of CG steps before reset           :                 5             |
 |  Trial step length for line search         :             2.000             |
 |  Convergence tolerence                     :         0.100E-09             |
 |  Convergence window                        :                -1             |
 |  Iterations between writing output         :                 1             |
 |  Iterations between backing up to disk     :               100             |
 |  Write r^2_nm to file                      :                 F             |
 |  Write xyz WF centres to file              :                 F             |
 |  Write on-site energies <0n|H|0n> to file  :                 F             |
 |  Use guiding centre to control phases      :                 F             |
 |  Use phases for initial projections        :                 T             |
 *----------------------------------------------------------------------------*
 *-------------------------------- PLOTTING ----------------------------------*
 |  Plotting Hamiltonian in WF basis          :                 T             |
 *----------------------------------------------------------------------------*
 Time to read parameters        0.007 (sec)

 *---------------------------------- K-MESH ----------------------------------*
 +----------------------------------------------------------------------------+
 |                    Distance to Nearest-Neighbour Shells                    |
 |                    ------------------------------------                    |
 |          Shell             Distance (Ang^-1)          Multiplicity         |
 |          -----             -----------------          ------------         |
 |             1                   0.210183                      2            |
 |             2                   0.355647                      6            |
 |             3                   0.413112                     12            |
 |             4                   0.420366                      2            |
 |             5                   0.550629                     12            |
 |             6                   0.615999                      6            |
 |             7                   0.630549                      2            |
 |             8                   0.650870                     12            |
 |             9                   0.711294                      6            |
 |            10                   0.723932                     12            |
 |            11                   0.741698                     12            |
 |            12                   0.745763                     12            |
 +----------------------------------------------------------------------------+
 | The b-vectors are chosen automatically                                     |
 | The following shells are used:   1,  2                                     |
 +----------------------------------------------------------------------------+
 |                        Shell   # Nearest-Neighbours                        |
 |                        -----   --------------------                        |
 |                          1               2                                 |
 |                          2               6                                 |
 +----------------------------------------------------------------------------+
 | Completeness relation is fully satisfied [Eq. (B1), PRB 56, 12847 (1997)]  |
 +----------------------------------------------------------------------------+
 |                  b_k Vectors (Ang^-1) and Weights (Ang^2)                  |
 |                  ----------------------------------------                  |
 |            No.         b_k(x)      b_k(y)      b_k(z)        w_b           |
 |            ---        --------------------------------     --------        |
 |             1         0.000000    0.210183    0.000000    11.318116        |
 |             2         0.000000   -0.210183    0.000000    11.318116        |
 |             3         0.307999    0.000000    0.177823     2.635364        |
 |             4        -0.307999    0.000000    0.177823     2.635364        |
 |             5         0.000000    0.000000   -0.355647     2.635364        |
 |             6        -0.307999    0.000000   -0.177823     2.635364        |
 |             7         0.307999    0.000000   -0.177823     2.635364        |
 |             8         0.000000    0.000000    0.355647     2.635364        |
 +----------------------------------------------------------------------------+
 |                           b_k Directions (Ang^-1)                          |
 |                           -----------------------                          |
 |            No.           x           y           z                         |
 |            ---        --------------------------------                     |
 |             1         0.000000    0.210183    0.000000                     |
 |             2         0.307999    0.000000    0.177823                     |
 |             3        -0.307999    0.000000    0.177823                     |
 |             4         0.000000    0.000000   -0.355647                     |
 +----------------------------------------------------------------------------+
  
 *============================================================================*
 |                              MEMORY ESTIMATE                               |
 |         Maximum RAM allocated during each phase of the calculation         |
 *============================================================================*
 |                            Wannierise:            5.62 Mb                  |
 *----------------------------------------------------------------------------*
  
 Starting a new Wannier90 calculation ...

 Time to get kmesh              0.020 (sec)

 Reading overlaps from wannier90.mmn    : File generated by VASP: MoS2

 Time to read overlaps          0.070 (sec)

 Writing checkpoint file wannier90.chk... done

 
 *------------------------------- WANNIERISE ---------------------------------*
 +--------------------------------------------------------------------+<-- CONV
 | Iter  Delta Spread     RMS Gradient      Spread (Ang^2)      Time  |<-- CONV
 +--------------------------------------------------------------------+<-- CONV
 
 ------------------------------------------------------------------------------
 Initial State
  WF centre and spread    1  ( -0.000001,  5.148175, -0.000013 )    43.35942898
  WF centre and spread    2  ( -0.000000,  4.744650,  0.000014 )    74.01483794
  WF centre and spread    3  ( -0.000001,  5.171988, -0.000011 )    75.30768222
  WF centre and spread    4  ( -0.000000,  4.723123,  0.000012 )    70.73703699
  WF centre and spread    5  ( -0.000001,  4.963538,  0.327166 )    53.05220173
  WF centre and spread    6  ( -0.000001,  4.930338,  0.654331 )    65.45125183
  WF centre and spread    7  ( -0.000009,  5.421856,  0.327145 )    81.36909161
  WF centre and spread    8  ( -0.000022,  4.542891, -0.000003 )    80.44568257
  WF centre and spread    9  (  0.283402,  4.931282,  0.490700 )    66.48715660
  WF centre and spread   10  (  0.000003,  4.897913,  0.000033 )    93.89619580
  WF centre and spread   11  (  0.038512,  5.127515, -0.000191 )    85.78676957
  WF centre and spread   12  ( -0.000309,  4.777576, -0.654123 )    72.43195360
  WF centre and spread   13  ( -0.000001,  5.178632,  0.654381 )    87.57364243
  WF centre and spread   14  (  0.283332,  4.718297,  0.163541 )    74.44933355
  WF centre and spread   15  (  0.283331,  5.125232,  0.163530 )    72.87873131
  WF centre and spread   16  ( -0.000001,  4.755265,  0.654386 )    77.08199826
  WF centre and spread   17  ( -0.000001,  5.045527,  0.327166 )    72.08752784
  WF centre and spread   18  ( -0.000001,  4.849105,  0.000000 )    86.83453331
  WF centre and spread   19  (  0.237914,  5.191753,  0.908545 )    79.42398170
  WF centre and spread   20  ( -0.005242,  4.712725,  0.001688 )    89.56109673
  WF centre and spread   21  (  0.083335,  4.967724,  0.322673 )    72.18104426
  WF centre and spread   22  (  0.238618,  4.754250,  0.273174 )    66.77911601
  Sum of centres and spreads (  1.442859,108.679352,  4.614143 )  1641.19029485
 
      0     0.164E+04     0.0000000000     1641.1902952223       0.10  <-- CONV
        O_D=   1205.6781794 O_OD=    399.0142818 O_TOT=   1641.1902952 <-- SPRD
 ------------------------------------------------------------------------------
 Cycle:      1
  WF centre and spread    1  ( -0.000050,  5.159671,  0.000055 )    42.67170891
  WF centre and spread    2  (  0.000025,  4.731155,  0.000037 )    73.65091456
  WF centre and spread    3  (  0.001492,  5.156722,  0.005743 )    75.66781313
  WF centre and spread    4  ( -0.005247,  4.699892,  0.334551 )    71.05162866
  WF centre and spread    5  (  0.001510,  4.953734,  0.315125 )    51.03179476
  WF centre and spread    6  ( -0.003596,  4.972236,  0.600843 )    61.68957399
  WF centre and spread    7  ( -0.438875,  5.345921,  0.864044 )    75.46094995
  WF centre and spread    8  (  0.470952,  4.462835, -0.003986 )    74.91154940
  WF centre and spread    9  (  0.597856,  4.948254, -0.002328 )    76.52208675
  WF centre and spread   10  ( -0.384171,  5.004944,  0.363711 )    80.50101622
  WF centre and spread   11  (  0.161879,  4.927376,  0.020719 )    77.21307909
  WF centre and spread   12  (  1.390258,  4.756762, -0.103901 )    82.66852851
  WF centre and spread   13  (  0.723668,  5.181968,  1.792918 )    63.02272728
  WF centre and spread   14  ( -0.430814,  4.968416,  0.216373 )    72.79984912
  WF centre and spread   15  ( -0.281424,  5.079540,  0.273027 )    73.11759767
  WF centre and spread   16  ( -0.255213,  4.718364,  1.087579 )    69.31870678
  WF centre and spread   17  (  0.101502,  5.067310,  0.246323 )    73.96828120
  WF centre and spread   18  (  0.054500,  4.796292, -0.191626 )    76.52270304
  WF centre and spread   19  (  0.185538,  5.334948,  0.763011 )    82.08455187
  WF centre and spread   20  ( -0.265348,  4.688280,  0.244599 )    77.92265506
  WF centre and spread   21  ( -0.004216,  4.906516,  0.649815 )    73.58527138
  WF centre and spread   22  ( -0.239220,  4.812834,  0.506889 )    63.20535866
  Sum of centres and spreads (  1.381006,108.673969,  7.983520 )  1568.58834598
 
      1    -0.726E+02  ***************     1568.5883464245       0.12  <-- CONV
        O_D=   1118.1412596 O_OD=    413.9492528 O_TOT=   1568.5883464 <-- SPRD
 Delta: O_D= -0.8753692E+02 O_OD=  0.1493497E+02 O_TOT= -0.7260195E+02 <-- DLTA
 ------------------------------------------------------------------------------
 Cycle:      2
  WF centre and spread    1  (  0.000061,  5.175897,  0.000639 )    41.77687686
  WF centre and spread    2  ( -0.000052,  4.708964, -0.000490 )    72.79696197
  WF centre and spread    3  (  0.000007,  5.184731,  0.005654 )    74.76855453
  WF centre and spread    4  ( -0.006387,  4.680222,  0.336618 )    70.00308054
  WF centre and spread    5  ( -0.013568,  4.951164,  0.241516 )    49.20698782
  WF centre and spread    6  (  0.005825,  4.981510,  0.612538 )    60.65309470
  WF centre and spread    7  ( -0.567878,  5.371713,  0.812564 )    70.57997336
  WF centre and spread    8  (  0.439880,  4.440393,  0.058344 )    69.04660994
  WF centre and spread    9  (  0.607320,  4.959763, -0.037783 )    71.27079544
  WF centre and spread   10  ( -0.345274,  4.994454,  0.524882 )    76.21559739
  WF centre and spread   11  (  0.050135,  4.904205,  0.067215 )    71.56700758
  WF centre and spread   12  (  1.410116,  4.701935,  0.287167 )    76.63375549
  WF centre and spread   13  (  0.673408,  5.204749,  1.807261 )    59.61719793
  WF centre and spread   14  ( -0.503396,  4.962990,  0.271423 )    67.57304014
  WF centre and spread   15  ( -0.306039,  5.199786,  0.091154 )    67.47450245
  WF centre and spread   16  ( -0.236298,  4.651266,  1.024308 )    64.75454362
  WF centre and spread   17  (  0.047438,  5.079726,  0.283884 )    71.45089083
  WF centre and spread   18  (  0.107752,  4.796871, -0.163155 )    74.67936390
  WF centre and spread   19  (  0.147272,  5.324441,  0.776132 )    78.20341088
  WF centre and spread   20  ( -0.236635,  4.706726, -0.043889 )    75.21286005
  WF centre and spread   21  ( -0.010099,  4.885484,  0.641106 )    70.60455435
  WF centre and spread   22  ( -0.236248,  4.813434,  0.606830 )    57.78754606
  Sum of centres and spreads (  1.027342,108.680424,  8.203918 )  1491.87720584
 
      2    -0.767E+02   226.0249814462     1491.8772062771       0.14  <-- CONV
        O_D=   1042.1766195 O_OD=    413.2027527 O_TOT=   1491.8772063 <-- SPRD
 Delta: O_D= -0.7596464E+02 O_OD= -0.7465000E+00 O_TOT= -0.7671114E+02 <-- DLTA
 ------------------------------------------------------------------------------
 Cycle:      3
  WF centre and spread    1  (  0.000486,  5.253092,  0.002353 )    37.84242521
  WF centre and spread    2  (  0.000133,  4.602299, -0.002461 )    69.02481410
  WF centre and spread    3  ( -0.001594,  5.302782, -0.000244 )    70.82038062
  WF centre and spread    4  ( -0.006773,  4.584855,  0.340840 )    65.31129908
  WF centre and spread    5  ( -0.103101,  4.933085,  0.142077 )    43.48031737
  WF centre and spread    6  (  0.233903,  5.018931,  0.503744 )    58.03104510
  WF centre and spread    7  ( -0.622724,  5.505693,  0.353320 )    57.50484465
  WF centre and spread    8  (  0.329263,  4.337073, -0.124249 )    56.39831350
  WF centre and spread    9  (  0.577424,  5.005763, -0.177371 )    60.35810198
  WF centre and spread   10  ( -0.346334,  4.916789,  0.498369 )    66.54417231
  WF centre and spread   11  (  0.028031,  4.964957, -0.077716 )    61.33430516
  WF centre and spread   12  (  1.154314,  4.576294,  0.111339 )    65.40118928
  WF centre and spread   13  (  0.853437,  5.216860,  1.668247 )    48.58730876
  WF centre and spread   14  ( -0.641139,  4.938270,  0.296582 )    55.44597816
  WF centre and spread   15  ( -0.214772,  5.349455,  0.024876 )    61.17067848
  WF centre and spread   16  ( -0.247537,  4.554953,  1.013911 )    54.16188824
  WF centre and spread   17  ( -0.024011,  5.130092,  0.418273 )    63.86327987
  WF centre and spread   18  (  0.213514,  4.791892, -0.107131 )    68.03292986
  WF centre and spread   19  (  0.083276,  5.281076,  0.847487 )    69.32530301
  WF centre and spread   20  ( -0.208634,  4.760761,  0.013033 )    66.22363945
  WF centre and spread   21  ( -0.013573,  4.870759,  0.745057 )    63.04945778
  WF centre and spread   22  ( -0.230698,  4.794625,  0.516187 )    50.18670854
  Sum of centres and spreads (  0.812889,108.690355,  7.006521 )  1312.09838052
 
      3    -0.180E+03    89.4494003930     1312.0983808587       0.15  <-- CONV
        O_D=    864.5760883 O_OD=    411.0244585 O_TOT=   1312.0983809 <-- SPRD
 Delta: O_D= -0.1776005E+03 O_OD= -0.2178294E+01 O_TOT= -0.1797788E+03 <-- DLTA
 ------------------------------------------------------------------------------
 Cycle:      4
  WF centre and spread    1  (  0.000825,  5.327132,  0.002966 )    34.59115478
  WF centre and spread    2  (  0.000101,  4.499853, -0.004411 )    65.90704988
  WF centre and spread    3  ( -0.002987,  5.410146, -0.003679 )    67.59902640
  WF centre and spread    4  ( -0.006609,  4.500615,  0.345469 )    61.45389288
  WF centre and spread    5  (  0.113696,  4.907908, -0.046984 )    39.89987585
  WF centre and spread    6  (  0.123896,  5.062086,  0.355209 )    53.50288264
  WF centre and spread    7  ( -0.475169,  5.558298,  0.754419 )    52.14035433
  WF centre and spread    8  (  0.566033,  4.293741,  0.136375 )    50.85004631
  WF centre and spread    9  (  0.523647,  5.050636, -0.191341 )    55.23609348
  WF centre and spread   10  ( -0.399636,  4.858834,  0.491483 )    60.90625857
  WF centre and spread   11  (  0.005040,  5.007419, -0.185690 )    55.40271535
  WF centre and spread   12  (  1.069335,  4.506295,  0.158204 )    59.02148528
  WF centre and spread   13  (  0.831130,  5.242479,  1.723240 )    45.94407029
  WF centre and spread   14  ( -0.684085,  4.920559,  0.280720 )    49.80561223
  WF centre and spread   15  ( -0.161957,  5.400335, -0.068070 )    57.08888278
  WF centre and spread   16  ( -0.247330,  4.505252,  1.073232 )    48.98351463
  WF centre and spread   17  (  0.008943,  5.160998,  0.431669 )    60.14104322
  WF centre and spread   18  (  0.205565,  4.792239, -0.093975 )    63.96353888
  WF centre and spread   19  (  0.067775,  5.249450,  0.844271 )    64.00092944
  WF centre and spread   20  ( -0.224454,  4.797274,  0.006172 )    60.86734282
  WF centre and spread   21  (  0.018257,  4.882380,  0.772807 )    59.80579120
  WF centre and spread   22  ( -0.260591,  4.768052,  0.488885 )    46.37343870
  Sum of centres and spreads (  1.071426,108.701980,  7.270971 )  1213.48499994
 
      4    -0.986E+02    79.0382878315     1213.4850003931       0.17  <-- CONV
        O_D=    767.5537403 O_OD=    409.4334261 O_TOT=   1213.4850004 <-- SPRD
 Delta: O_D= -0.9702235E+02 O_OD= -0.1591032E+01 O_TOT= -0.9861338E+02 <-- DLTA
 ------------------------------------------------------------------------------
 Cycle:      5
  WF centre and spread    1  (  0.001264,  5.459848,  0.002681 )    29.78799883
  WF centre and spread    2  ( -0.000416,  4.316925, -0.006019 )    61.28095937
  WF centre and spread    3  ( -0.004461,  5.594330, -0.337225 )    62.67208631
  WF centre and spread    4  ( -0.007279,  4.360471,  0.353495 )    55.78405095
  WF centre and spread    5  (  0.094170,  4.875874, -0.071512 )    34.56631602
  WF centre and spread    6  (  0.090444,  5.128142,  0.272744 )    49.91350460
  WF centre and spread    7  ( -0.501188,  5.597061,  0.849504 )    46.36110736
  WF centre and spread    8  (  0.482191,  4.236508,  0.171680 )    42.59631168
  WF centre and spread    9  (  0.456312,  5.116092, -0.200633 )    48.93413896
  WF centre and spread   10  ( -0.446546,  4.778322,  0.468580 )    54.19362330
  WF centre and spread   11  ( -0.015152,  5.055817, -0.325952 )    48.27624090
  WF centre and spread   12  (  1.120103,  4.451847,  0.174478 )    51.73428322
  WF centre and spread   13  (  0.826681,  5.295710,  1.754848 )    42.26189132
  WF centre and spread   14  ( -0.716300,  4.902986,  0.222736 )    43.63369364
  WF centre and spread   15  ( -0.311249,  5.378943, -0.033400 )    52.19231916
  WF centre and spread   16  ( -0.310639,  4.492533,  1.072672 )    43.63696793
  WF centre and spread   17  (  0.050094,  5.186732,  0.427924 )    56.27662691
  WF centre and spread   18  (  0.170561,  4.808134, -0.089912 )    59.09384365
  WF centre and spread   19  (  0.038251,  5.200456,  0.841384 )    57.18274123
  WF centre and spread   20  ( -0.242221,  4.849737,  0.009536 )    54.28175500
  WF centre and spread   21  (  0.147503,  4.914770,  0.762654 )    53.64125481
  WF centre and spread   22  ( -0.282732,  4.712327,  0.494335 )    41.84225161
  Sum of centres and spreads (  0.639390,108.713565,  6.814596 )  1090.14396677
 
      5    -0.123E+03    60.8564073339     1090.1439672402       0.18  <-- CONV
        O_D=    646.1908157 O_OD=    407.4553175 O_TOT=   1090.1439672 <-- SPRD
 Delta: O_D= -0.1213629E+03 O_OD= -0.1978109E+01 O_TOT= -0.1233410E+03 <-- DLTA
 ------------------------------------------------------------------------------
 Cycle:      6
  WF centre and spread    1  (  0.001212,  5.773492,  0.000387 )    21.75224695
  WF centre and spread    2  ( -0.001068,  3.893486, -0.007480 )    53.44265202
  WF centre and spread    3  ( -0.009950,  5.986458, -0.022283 )    52.73177995
  WF centre and spread    4  ( -0.011085,  4.070202,  0.370673 )    46.45694491
  WF centre and spread    5  (  0.126619,  4.834351, -0.067030 )    26.36184692
  WF centre and spread    6  ( -0.004686,  5.254558,  0.271814 )    43.74374037
  WF centre and spread    7  ( -0.703038,  5.553552,  0.916198 )    37.93712502
  WF centre and spread    8  (  0.516330,  4.164215,  0.222899 )    31.61502132
  WF centre and spread    9  (  0.385460,  5.199036, -0.197085 )    39.83623425
  WF centre and spread   10  ( -0.325923,  4.689632,  0.509708 )    45.09945230
  WF centre and spread   11  (  0.005300,  5.088423, -0.463741 )    38.53992967
  WF centre and spread   12  (  1.101674,  4.424478,  0.343107 )    40.34371296
  WF centre and spread   13  (  0.678855,  5.450212,  1.641919 )    35.97975112
  WF centre and spread   14  ( -0.648324,  4.900279,  0.206156 )    36.77320995
  WF centre and spread   15  ( -0.353860,  5.203594, -0.149818 )    45.34363196
  WF centre and spread   16  ( -0.371722,  4.572994,  1.003253 )    36.37505512
  WF centre and spread   17  (  0.099675,  5.198380,  0.427869 )    50.91318303
  WF centre and spread   18  (  0.116138,  4.854825,  0.221960 )    52.21984956
  WF centre and spread   19  ( -0.005733,  5.095900,  0.802523 )    47.26146565
  WF centre and spread   20  ( -0.223391,  4.930913,  0.240351 )    44.13455829
  WF centre and spread   21  (  0.195736,  4.967882,  0.888291 )    43.48065056
  WF centre and spread   22  ( -0.272773,  4.614796,  0.497805 )    35.90044650
  Sum of centres and spreads (  0.295446,108.721657,  7.657476 )   906.24248838
 
      6    -0.184E+03    46.6413588306      906.2424888772       0.20  <-- CONV
        O_D=    464.7620332 O_OD=    404.9826216 O_TOT=    906.2424889 <-- SPRD
 Delta: O_D= -0.1814288E+03 O_OD= -0.2472696E+01 O_TOT= -0.1839015E+03 <-- DLTA
 ------------------------------------------------------------------------------
 Cycle:      7
  WF centre and spread    1  (  0.001219,  5.799110,  0.000305 )    21.43994277
  WF centre and spread    2  ( -0.001004,  3.857854, -0.007722 )    53.14258199
  WF centre and spread    3  ( -0.009903,  6.016758, -0.022426 )    51.96632674
  WF centre and spread    4  ( -0.010964,  4.049201,  0.371041 )    46.10757601
  WF centre and spread    5  (  0.130341,  4.832479, -0.062233 )    26.09777657
  WF centre and spread    6  (  0.000864,  5.260299,  0.272909 )    43.41865959
  WF centre and spread    7  ( -0.586990,  5.535382,  0.851747 )    37.37740097
  WF centre and spread    8  (  0.512939,  4.162851,  0.190328 )    31.00989415
  WF centre and spread    9  (  0.452656,  5.213863, -0.170638 )    39.27082244
  WF centre and spread   10  ( -0.313773,  4.690697,  0.501524 )    44.54417526
  WF centre and spread   11  (  0.017459,  5.085555, -0.457068 )    37.96828512
  WF centre and spread   12  (  1.086630,  4.421030,  0.360261 )    39.51556112
  WF centre and spread   13  (  0.679554,  5.462949,  1.648258 )    35.51758540
  WF centre and spread   14  ( -0.640001,  4.892797,  0.215962 )    36.44590566
  WF centre and spread   15  ( -0.436000,  5.193128, -0.126672 )    43.88163706
  WF centre and spread   16  ( -0.350735,  4.586893,  1.011769 )    35.99623010
  WF centre and spread   17  (  0.092817,  5.192175,  0.429029 )    50.53534814
  WF centre and spread   18  (  0.109122,  4.858773,  0.223510 )    51.69162896
  WF centre and spread   19  (  0.000548,  5.091078,  0.802620 )    46.77202472
  WF centre and spread   20  ( -0.298262,  4.931724,  0.234906 )    43.22481130
  WF centre and spread   21  (  0.198069,  4.966958,  0.882521 )    42.83494556
  WF centre and spread   22  ( -0.297424,  4.621689,  0.515766 )    35.57694206
  Sum of centres and spreads (  0.337161,108.723242,  7.665699 )   894.33606168
 
      7    -0.119E+02    59.7007116625      894.3360621701       0.21  <-- CONV
        O_D=    452.8663590 O_OD=    404.9718692 O_TOT=    894.3360622 <-- SPRD
 Delta: O_D= -0.1189567E+02 O_OD= -0.1075247E-01 O_TOT= -0.1190643E+02 <-- DLTA
 ------------------------------------------------------------------------------
 Cycle:      8
  WF centre and spread    1  (  0.001212,  5.843222,  0.000194 )    20.91775099
  WF centre and spread    2  ( -0.000900,  3.796821, -0.008086 )    52.63576768
  WF centre and spread    3  ( -0.010007,  6.070047, -0.022520 )    50.69994123
  WF centre and spread    4  ( -0.010986,  4.012631,  0.371586 )    45.52355781
  WF centre and spread    5  (  0.131831,  4.830194, -0.058310 )    25.64682106
  WF centre and spread    6  (  0.008622,  5.270019,  0.274756 )    42.86846608
  WF centre and spread    7  ( -0.576535,  5.517099,  1.170218 )    36.11295220
  WF centre and spread    8  (  0.516968,  4.161498,  0.175683 )    30.23167574
  WF centre and spread    9  (  0.441294,  5.222782, -0.191785 )    38.40081938
  WF centre and spread   10  ( -0.305615,  4.696661,  0.500556 )    43.67040117
  WF centre and spread   11  (  0.036289,  5.082959, -0.459224 )    37.03399273
  WF centre and spread   12  (  1.065984,  4.414925,  0.382186 )    38.36742091
  WF centre and spread   13  (  0.674575,  5.485268,  1.649289 )    34.81727248
  WF centre and spread   14  ( -0.635873,  4.883616,  0.237510 )    35.89687503
  WF centre and spread   15  ( -0.470735,  5.166797, -0.079813 )    42.54945855
  WF centre and spread   16  ( -0.330982,  4.610019,  1.010534 )    35.37923274
  WF centre and spread   17  (  0.086173,  5.182786,  0.431897 )    49.87895728
  WF centre and spread   18  (  0.103339,  4.865385,  0.222368 )    50.86506403
  WF centre and spread   19  (  0.006694,  5.085742,  0.799364 )    45.92593873
  WF centre and spread   20  ( -0.289509,  4.924837,  0.219578 )    42.13192344
  WF centre and spread   21  (  0.205256,  4.965789,  0.874371 )    41.81649250
  WF centre and spread   22  ( -0.315765,  4.634230,  0.535788 )    35.09732128
  Sum of centres and spreads (  0.331329,108.723327,  8.036142 )   876.46810305
 
      8    -0.179E+02    32.7080988142      876.4681036238       0.22  <-- CONV
        O_D=    435.0155991 O_OD=    404.9546705 O_TOT=    876.4681036 <-- SPRD
 Delta: O_D= -0.1785076E+02 O_OD= -0.1719863E-01 O_TOT= -0.1786796E+02 <-- DLTA
 ------------------------------------------------------------------------------
 Cycle:      9
  WF centre and spread    1  (  0.001512,  6.390282, -0.002074 )    15.17330147
  WF centre and spread    2  (  0.000262,  3.049726, -0.012572 )    46.93030853
  WF centre and spread    3  ( -0.010523,  6.726178, -0.022757 )    36.58103840
  WF centre and spread    4  ( -0.009299,  3.562180,  0.380174 )    39.30789499
  WF centre and spread    5  (  0.141923,  4.821581, -0.026817 )    21.43482176
  WF centre and spread    6  (  0.055406,  5.381119,  0.321138 )    37.50896078
  WF centre and spread    7  ( -0.571200,  5.285266,  1.313497 )    30.23591837
  WF centre and spread    8  (  0.594932,  4.143680,  0.167499 )    25.01051107
  WF centre and spread    9  (  0.444843,  5.304019, -0.281270 )    31.91729451
  WF centre and spread   10  ( -0.237589,  4.796116,  0.533573 )    34.78495787
  WF centre and spread   11  (  0.169108,  5.052043, -0.457826 )    29.77987202
  WF centre and spread   12  (  1.037442,  4.319548,  0.481381 )    30.64575310
  WF centre and spread   13  (  0.598559,  5.747801,  1.561279 )    29.33290804
  WF centre and spread   14  ( -0.583885,  4.780172,  0.472627 )    30.99592428
  WF centre and spread   15  ( -0.551605,  4.842006,  0.074401 )    36.57167130
  WF centre and spread   16  ( -0.503336,  4.892861,  0.495069 )    32.80559056
  WF centre and spread   17  (  0.092542,  5.043638,  0.454449 )    42.30102633
  WF centre and spread   18  (  0.094107,  4.981755,  0.211332 )    42.30058590
  WF centre and spread   19  (  0.032741,  4.979246,  0.689509 )    36.46329635
  WF centre and spread   20  ( -0.228655,  4.863189,  0.358568 )    32.75598362
  WF centre and spread   21  (  0.184489,  4.972364,  0.837112 )    32.70200044
  WF centre and spread   22  ( -0.213893,  4.786499,  0.714598 )    32.22008374
  Sum of centres and spreads (  0.537882,108.721269,  8.262891 )   727.75970344
 
      9    -0.149E+03    31.5671004783      727.7597039844       0.24  <-- CONV
        O_D=    290.6418135 O_OD=    400.6200564 O_TOT=    727.7597040 <-- SPRD
 Delta: O_D= -0.1443738E+03 O_OD= -0.4334614E+01 O_TOT= -0.1487084E+03 <-- DLTA
 ------------------------------------------------------------------------------
 Cycle:     10
  WF centre and spread    1  (  0.001827,  6.591387, -0.003509 )    13.52315598
  WF centre and spread    2  (  0.000634,  2.781404,  0.313452 )    44.77594267
  WF centre and spread    3  ( -0.009892,  6.957337,  0.305131 )    31.88732780
  WF centre and spread    4  ( -0.007951,  3.404635,  0.382806 )    37.65388002
  WF centre and spread    5  (  0.150247,  4.825324, -0.028846 )    20.59045837
  WF centre and spread    6  (  0.054577,  5.415861,  0.336747 )    35.96117608
  WF centre and spread    7  ( -0.555291,  5.207367,  1.399697 )    28.73219256
  WF centre and spread    8  (  0.608115,  4.138720,  0.223850 )    24.21885861
  WF centre and spread    9  (  0.514897,  5.334006, -0.345540 )    29.91753559
  WF centre and spread   10  ( -0.231200,  4.831593,  0.533961 )    32.82582865
  WF centre and spread   11  (  0.192595,  5.061304, -0.475267 )    28.20912475
  WF centre and spread   12  (  1.054489,  4.280907,  0.466575 )    29.33493217
  WF centre and spread   13  (  0.563077,  5.831577,  1.518836 )    28.25485218
  WF centre and spread   14  ( -0.558228,  4.740917,  0.522520 )    29.93787014
  WF centre and spread   15  ( -0.579136,  4.813919,  0.092186 )    35.12080961
  WF centre and spread   16  ( -0.561153,  4.882650,  0.392549 )    30.05597592
  WF centre and spread   17  (  0.093621,  5.000733,  0.477040 )    39.93718548
  WF centre and spread   18  (  0.100601,  5.025666,  0.209204 )    39.78865913
  WF centre and spread   19  ( -0.054186,  4.926861,  0.591133 )    33.52969957
  WF centre and spread   20  ( -0.229949,  4.828201,  0.377798 )    30.46589323
  WF centre and spread   21  (  0.175237,  4.985563,  0.829762 )    30.66206208
  WF centre and spread   22  ( -0.282243,  4.862501,  0.694595 )    30.63616344
  Sum of centres and spreads (  0.440686,108.728435,  8.814678 )   686.01958402
 
     10    -0.417E+02    40.0784553877      686.0195845721       0.25  <-- CONV
        O_D=    251.5521440 O_OD=    397.9696065 O_TOT=    686.0195846 <-- SPRD
 Delta: O_D= -0.3908967E+02 O_OD= -0.2650450E+01 O_TOT= -0.4174012E+02 <-- DLTA
 ------------------------------------------------------------------------------
 Cycle:     11
  WF centre and spread    1  (  0.002218,  6.970241, -0.006923 )    11.03493700
  WF centre and spread    2  (  0.000987,  2.281501,  0.311341 )    39.50173585
  WF centre and spread    3  ( -0.010224,  7.421287, -0.024228 )    21.67633642
  WF centre and spread    4  ( -0.003081,  3.090541,  0.385698 )    35.36614489
  WF centre and spread    5  (  0.167195,  4.835985, -0.059295 )    19.74179041
  WF centre and spread    6  (  0.052446,  5.485559,  0.342707 )    33.61612348
  WF centre and spread    7  ( -0.455413,  5.097264,  1.615310 )    27.90849114
  WF centre and spread    8  (  0.607211,  4.119239,  0.333183 )    23.12888582
  WF centre and spread    9  (  0.610280,  5.404839, -0.488930 )    26.34112352
  WF centre and spread   10  ( -0.173989,  4.866397,  0.499669 )    29.11109028
  WF centre and spread   11  (  0.266286,  5.086487, -0.528737 )    25.98683762
  WF centre and spread   12  (  1.083817,  4.166407,  0.453897 )    27.15815769
  WF centre and spread   13  (  0.478814,  5.980859,  1.482467 )    26.42195632
  WF centre and spread   14  ( -0.472442,  4.665478,  0.548581 )    27.55946820
  WF centre and spread   15  ( -0.652449,  4.836457,  0.129844 )    32.04354216
  WF centre and spread   16  ( -0.495788,  4.813635,  0.516034 )    26.54239773
  WF centre and spread   17  (  0.141032,  4.973753,  0.517714 )    35.87618839
  WF centre and spread   18  (  0.076378,  5.117424,  0.272275 )    34.72880695
  WF centre and spread   19  (  0.022602,  4.763865,  0.539814 )    27.89256823
  WF centre and spread   20  ( -0.383473,  4.727934,  0.388334 )    26.59033972
  WF centre and spread   21  (  0.086585,  5.093063,  0.815320 )    27.05681863
  WF centre and spread   22  ( -0.269191,  4.954712,  0.757003 )    28.71562694
  Sum of centres and spreads (  0.679800,108.752928,  8.801078 )   613.99936738
 
     11    -0.720E+02    28.6231761029      613.9993680452       0.27  <-- CONV
        O_D=    184.8989211 O_OD=    392.6026129 O_TOT=    613.9993680 <-- SPRD
 Delta: O_D= -0.6665322E+02 O_OD= -0.5366994E+01 O_TOT= -0.7202022E+02 <-- DLTA
 ------------------------------------------------------------------------------
 Cycle:     12
  WF centre and spread    1  (  0.002275,  7.114380, -0.009873 )    10.27095492
  WF centre and spread    2  (  0.000960,  2.095217,  0.312211 )    36.96140662
  WF centre and spread    3  ( -0.011584,  7.601527, -0.021649 )    18.34728448
  WF centre and spread    4  ( -0.000677,  2.966758,  0.386695 )    34.78490831
  WF centre and spread    5  (  0.162470,  4.843518, -0.068448 )    19.73054112
  WF centre and spread    6  (  0.052328,  5.506356,  0.346501 )    33.05179615
  WF centre and spread    7  ( -0.507549,  5.044687,  1.677506 )    26.72929500
  WF centre and spread    8  (  0.609869,  4.120404,  0.372187 )    23.00611024
  WF centre and spread    9  (  0.582189,  5.435944, -0.508397 )    25.54217840
  WF centre and spread   10  ( -0.157763,  4.872243,  0.474435 )    27.96863192
  WF centre and spread   11  (  0.278153,  5.090037, -0.510535 )    25.40992914
  WF centre and spread   12  (  1.108753,  4.113892,  0.457046 )    26.56646837
  WF centre and spread   13  (  0.454362,  6.029916,  1.470512 )    25.93318589
  WF centre and spread   14  ( -0.446413,  4.646168,  0.534758 )    26.85122218
  WF centre and spread   15  ( -0.686518,  4.859626,  0.152009 )    30.92964178
  WF centre and spread   16  ( -0.412777,  4.784935,  0.534219 )    25.98419319
  WF centre and spread   17  (  0.143074,  4.965656,  0.529454 )    34.17183105
  WF centre and spread   18  (  0.066836,  5.170323,  0.310255 )    33.31487129
  WF centre and spread   19  (  0.062136,  4.690204,  0.509511 )    26.14621253
  WF centre and spread   20  ( -0.412244,  4.678529,  0.322595 )    25.61347500
  WF centre and spread   21  (  0.007292,  5.150257,  0.840710 )    26.07189331
  WF centre and spread   22  ( -0.398484,  4.983422,  0.801809 )    27.45339092
  Sum of centres and spreads (  0.496689,108.763999,  8.913511 )   590.83942179
 
     12    -0.232E+02    39.4803182895      590.8394224697       0.28  <-- CONV
        O_D=    163.7814222 O_OD=    390.5601663 O_TOT=    590.8394225 <-- SPRD
 Delta: O_D= -0.2111750E+02 O_OD= -0.2042447E+01 O_TOT= -0.2315995E+02 <-- DLTA
 ------------------------------------------------------------------------------
 Cycle:     13
  WF centre and spread    1  (  0.002318,  7.138396, -0.010316 )    10.08464270
  WF centre and spread    2  (  0.000926,  2.060619,  0.312652 )    36.39639272
  WF centre and spread    3  ( -0.011061,  7.645304, -0.019567 )    17.66703307
  WF centre and spread    4  ( -0.001278,  2.936215,  0.386867 )    34.60688774
  WF centre and spread    5  (  0.162973,  4.843799, -0.067172 )    19.62067771
  WF centre and spread    6  (  0.054181,  5.514171,  0.348315 )    32.92275447
  WF centre and spread    7  ( -0.519585,  5.040693,  1.667475 )    26.35497165
  WF centre and spread    8  (  0.606146,  4.104634,  0.369021 )    22.88696692
  WF centre and spread    9  (  0.621434,  5.441543, -0.531435 )    25.25212792
  WF centre and spread   10  ( -0.162460,  4.874235,  0.469678 )    27.63594030
  WF centre and spread   11  (  0.281515,  5.090999, -0.532475 )    25.08212770
  WF centre and spread   12  (  1.113329,  4.103546,  0.454580 )    26.21821421
  WF centre and spread   13  (  0.445697,  6.045944,  1.472703 )    25.73389870
  WF centre and spread   14  ( -0.446562,  4.643268,  0.521838 )    26.55711400
  WF centre and spread   15  ( -0.689763,  4.866941,  0.152084 )    30.54924731
  WF centre and spread   16  ( -0.457113,  4.777906,  0.512259 )    25.08019185
  WF centre and spread   17  (  0.132496,  4.970953,  0.507124 )    33.58345069
  WF centre and spread   18  (  0.063915,  5.179819,  0.309747 )    32.76981062
  WF centre and spread   19  (  0.066460,  4.683348,  0.501263 )    25.85678170
  WF centre and spread   20  ( -0.390163,  4.671870,  0.314925 )    25.36871808
  WF centre and spread   21  (  0.016768,  5.159698,  0.841951 )    25.78146845
  WF centre and spread   22  ( -0.342477,  4.975085,  0.741146 )    27.23806248
  Sum of centres and spreads (  0.547697,108.768985,  8.722663 )   583.24748099
 
     13    -0.759E+01    28.2088196384      583.2474816474       0.30  <-- CONV
        O_D=    157.1095624 O_OD=    389.6400853 O_TOT=    583.2474816 <-- SPRD
 Delta: O_D= -0.6671860E+01 O_OD= -0.9200810E+00 O_TOT= -0.7591941E+01 <-- DLTA
 ------------------------------------------------------------------------------
 Cycle:     14
  WF centre and spread    1  (  0.001351,  7.417781, -0.017788 )     7.73717357
  WF centre and spread    2  (  0.001261,  1.651125,  0.317488 )    29.75204674
  WF centre and spread    3  ( -0.007401,  8.169663,  0.002957 )    10.06451946
  WF centre and spread    4  ( -0.010433,  2.557560,  0.391584 )    32.26716872
  WF centre and spread    5  (  0.168281,  4.838191, -0.040674 )    18.56879894
  WF centre and spread    6  (  0.051525,  5.622289,  0.370612 )    31.13722312
  WF centre and spread    7  ( -0.691572,  4.978160,  1.640254 )    23.95031021
  WF centre and spread    8  (  0.570037,  3.863437,  0.329393 )    21.91029764
  WF centre and spread    9  (  0.661496,  5.558862, -0.561323 )    22.97735899
  WF centre and spread   10  ( -0.183440,  4.870607,  0.475106 )    24.90288219
  WF centre and spread   11  (  0.358317,  5.095083, -0.563120 )    23.62790203
  WF centre and spread   12  (  1.202654,  3.964909,  0.435548 )    23.20243725
  WF centre and spread   13  (  0.335354,  6.239458,  1.501617 )    24.14955733
  WF centre and spread   14  ( -0.449435,  4.584758,  0.419455 )    24.52892938
  WF centre and spread   15  ( -0.707013,  5.011257,  0.205088 )    26.40329960
  WF centre and spread   16  ( -0.401857,  4.723048,  0.556131 )    23.81487469
  WF centre and spread   17  (  0.169433,  5.022223,  0.418018 )    29.31177088
  WF centre and spread   18  (  0.058909,  5.287363,  0.152074 )    27.06837050
  WF centre and spread   19  (  0.092062,  4.573829,  0.404157 )    23.28817397
  WF centre and spread   20  ( -0.267695,  4.535207,  0.342702 )    23.15917307
  WF centre and spread   21  (  0.089927,  5.301865,  0.816520 )    23.57246609
  WF centre and spread   22  ( -0.383329,  4.934544,  0.627946 )    25.63321391
  Sum of centres and spreads (  0.658433,108.801220,  8.223745 )   521.02794829
 
     14    -0.622E+02    19.8204473594      521.0279488542       0.31  <-- CONV
        O_D=    107.8268842 O_OD=    376.7032307 O_TOT=    521.0279489 <-- SPRD
 Delta: O_D= -0.4928268E+02 O_OD= -0.1293685E+02 O_TOT= -0.6221953E+02 <-- DLTA
 ------------------------------------------------------------------------------
 Cycle:     15
  WF centre and spread    1  ( -0.001645,  7.577158, -0.023043 )     5.80505370
  WF centre and spread    2  (  0.002614,  1.343480,  0.322264 )    23.84211737
  WF centre and spread    3  ( -0.005929,  8.603930,  0.012495 )     6.24200070
  WF centre and spread    4  ( -0.036014,  2.237566,  0.425617 )    29.51112215
  WF centre and spread    5  (  0.145737,  4.795934, -0.061309 )    17.88018540
  WF centre and spread    6  (  0.029283,  5.813932,  0.383323 )    28.52221783
  WF centre and spread    7  ( -0.802778,  4.922814,  1.717779 )    23.60357262
  WF centre and spread    8  (  0.557028,  3.498739,  0.358255 )    21.05476764
  WF centre and spread    9  (  0.699178,  5.799563, -0.598733 )    21.64555885
  WF centre and spread   10  ( -0.208244,  4.862117,  0.489083 )    22.98804158
  WF centre and spread   11  (  0.385820,  5.104306, -0.578220 )    22.31085162
  WF centre and spread   12  (  1.390649,  3.644327,  0.476781 )    20.94023380
  WF centre and spread   13  (  0.237526,  6.603833,  1.497799 )    23.16466718
  WF centre and spread   14  ( -0.481377,  4.428981,  0.331588 )    23.06749824
  WF centre and spread   15  ( -0.715109,  5.159778,  0.303146 )    23.57633814
  WF centre and spread   16  ( -0.398693,  4.670769,  0.646133 )    22.26188045
  WF centre and spread   17  (  0.253968,  5.194458,  0.398047 )    24.96908000
  WF centre and spread   18  (  0.034697,  5.377645,  0.089285 )    23.42646030
  WF centre and spread   19  (  0.089278,  4.354111,  0.332155 )    21.47234276
  WF centre and spread   20  ( -0.274221,  4.325112,  0.448733 )    21.56686822
  WF centre and spread   21  ( -0.033604,  5.477385,  0.718531 )    23.66709049
  WF centre and spread   22  ( -0.429581,  5.000158,  0.591625 )    24.13704363
  Sum of centres and spreads (  0.438582,108.796098,  8.281334 )   475.65499267
 
     15    -0.454E+02    14.6941678948      475.6549931798       0.33  <-- CONV
        O_D=     77.8158237 O_OD=    361.3413355 O_TOT=    475.6549932 <-- SPRD
 Delta: O_D= -0.3001106E+02 O_OD= -0.1536190E+02 O_TOT= -0.4537296E+02 <-- DLTA
 ------------------------------------------------------------------------------
 Cycle:     16
  WF centre and spread    1  ( -0.002129,  7.578562, -0.023065 )     5.66606417
  WF centre and spread    2  (  0.002743,  1.321387,  0.322248 )    23.17727581
  WF centre and spread    3  ( -0.005215,  8.639915,  0.012967 )     6.23512101
  WF centre and spread    4  ( -0.043636,  2.214043,  0.439277 )    29.12309038
  WF centre and spread    5  (  0.147765,  4.789479, -0.055308 )    17.82779001
  WF centre and spread    6  (  0.022283,  5.847736,  0.386291 )    28.07836865
  WF centre and spread    7  ( -0.825485,  4.911235,  1.733031 )    23.57854754
  WF centre and spread    8  (  0.551412,  3.440177,  0.364113 )    20.94002056
  WF centre and spread    9  (  0.704948,  5.841627, -0.601419 )    21.51055339
  WF centre and spread   10  ( -0.202242,  4.861130,  0.490852 )    22.81533254
  WF centre and spread   11  (  0.386228,  5.107092, -0.574122 )    22.18309234
  WF centre and spread   12  (  1.419155,  3.591469,  0.485561 )    20.69261583
  WF centre and spread   13  (  0.240596,  6.665446,  1.496470 )    23.01089222
  WF centre and spread   14  ( -0.494396,  4.403284,  0.320390 )    22.92100537
  WF centre and spread   15  ( -0.715556,  5.178841,  0.317620 )    23.33849883
  WF centre and spread   16  ( -0.400944,  4.658737,  0.652225 )    22.18695778
  WF centre and spread   17  (  0.266754,  5.225221,  0.408183 )    24.51390483
  WF centre and spread   18  (  0.026322,  5.393178,  0.121829 )    23.15891658
  WF centre and spread   19  (  0.093274,  4.316744,  0.318341 )    21.28080360
  WF centre and spread   20  ( -0.275712,  4.296384,  0.457722 )    21.45639785
  WF centre and spread   21  ( -0.050489,  5.501940,  0.768222 )    22.70523116
  WF centre and spread   22  ( -0.428929,  5.011378,  0.586465 )    23.93526013
  Sum of centres and spreads (  0.416745,108.795004,  8.427893 )   470.33574056
 
     16    -0.532E+01    22.5831734825      470.3357410723       0.34  <-- CONV
        O_D=     74.3225392 O_OD=    359.5153679 O_TOT=    470.3357411 <-- SPRD
 Delta: O_D= -0.3493284E+01 O_OD= -0.1825968E+01 O_TOT= -0.5319252E+01 <-- DLTA
 ------------------------------------------------------------------------------
 Cycle:     17
  WF centre and spread    1  ( -0.004025,  7.556201, -0.019368 )     4.88321121
  WF centre and spread    2  (  0.002766,  1.187942,  0.318923 )    19.49739054
  WF centre and spread    3  (  0.001484,  8.826457,  0.011411 )     6.15123203
  WF centre and spread    4  ( -0.143449,  2.126447,  0.567334 )    26.41730249
  WF centre and spread    5  (  0.185106,  4.747563,  0.022846 )    17.38103553
  WF centre and spread    6  ( -0.030250,  6.106046,  0.435549 )    25.18559798
  WF centre and spread    7  ( -0.927510,  4.847305,  1.808357 )    22.72552661
  WF centre and spread    8  (  0.507978,  3.054622,  0.408088 )    19.87029664
  WF centre and spread    9  (  0.731387,  6.146757, -0.616990 )    20.30710587
  WF centre and spread   10  ( -0.001061,  4.855156,  0.542638 )    22.93387782
  WF centre and spread   11  (  0.388650,  5.127864, -0.548003 )    21.27317657
  WF centre and spread   12  (  1.596126,  3.240798,  0.571856 )    18.97265475
  WF centre and spread   13  (  0.290041,  7.110879,  1.439922 )    21.34212209
  WF centre and spread   14  ( -0.602233,  4.221435,  0.303214 )    21.91423496
  WF centre and spread   15  ( -0.690196,  5.283964,  0.416101 )    22.19177960
  WF centre and spread   16  ( -0.415953,  4.537477,  0.711467 )    21.30561780
  WF centre and spread   17  (  0.292272,  5.414813,  0.477097 )    22.35786374
  WF centre and spread   18  ( -0.007100,  5.519878,  0.369857 )    22.06608510
  WF centre and spread   19  (  0.130882,  4.042808,  0.246461 )    20.13030602
  WF centre and spread   20  ( -0.303867,  4.126197,  0.468204 )    20.68721495
  WF centre and spread   21  ( -0.184305,  5.665858,  0.662542 )    22.36800468
  WF centre and spread   22  ( -0.460220,  5.045099,  0.596139 )    22.63560521
  Sum of centres and spreads (  0.356524,108.791566,  9.193642 )   442.59724219
 
     17    -0.277E+02    12.8426711847      442.5972426545       0.36  <-- CONV
        O_D=     59.0960977 O_OD=    347.0033109 O_TOT=    442.5972427 <-- SPRD
 Delta: O_D= -0.1522644E+02 O_OD= -0.1251206E+02 O_TOT= -0.2773850E+02 <-- DLTA
 ------------------------------------------------------------------------------
 Cycle:     18
  WF centre and spread    1  ( -0.004517,  7.543054, -0.017547 )     4.70322920
  WF centre and spread    2  (  0.002807,  1.147966,  0.317754 )    19.15615314
  WF centre and spread    3  (  0.003990,  8.870388,  0.010402 )     6.17339415
  WF centre and spread    4  ( -0.180725,  2.118434,  0.592376 )    25.82430036
  WF centre and spread    5  (  0.193271,  4.730673,  0.027671 )    17.27559763
  WF centre and spread    6  ( -0.032290,  6.189617,  0.457087 )    24.52197098
  WF centre and spread    7  ( -0.936470,  4.827981,  1.815027 )    22.53626016
  WF centre and spread    8  (  0.487426,  2.936716,  0.416105 )    19.51929515
  WF centre and spread    9  (  0.730059,  6.244135, -0.622104 )    19.92597478
  WF centre and spread   10  ( -0.053330,  4.866351,  0.541331 )    21.92641533
  WF centre and spread   11  (  0.397374,  5.134725, -0.546544 )    21.06313171
  WF centre and spread   12  (  1.651838,  3.139554,  0.598186 )    18.56849229
  WF centre and spread   13  (  0.296860,  7.243903,  1.424926 )    20.84043666
  WF centre and spread   14  ( -0.628288,  4.170374,  0.306610 )    21.65249176
  WF centre and spread   15  ( -0.695389,  5.312835,  0.416525 )    21.95979927
  WF centre and spread   16  ( -0.418911,  4.494512,  0.727996 )    21.09597908
  WF centre and spread   17  (  0.286916,  5.467848,  0.499250 )    22.04884719
  WF centre and spread   18  ( -0.010413,  5.559788,  0.410313 )    21.78851736
  WF centre and spread   19  (  0.145369,  3.953631,  0.231630 )    19.83281555
  WF centre and spread   20  ( -0.312390,  4.065732,  0.465421 )    20.48409335
  WF centre and spread   21  ( -0.193723,  5.721745,  0.636860 )    22.10206407
  WF centre and spread   22  ( -0.473867,  5.051583,  0.598980 )    22.38164940
  Sum of centres and spreads (  0.255598,108.791546,  9.308252 )   435.38090856
 
     18    -0.722E+01    15.5449981817      435.3809090081       0.37  <-- CONV
        O_D=     55.5089893 O_OD=    343.3740857 O_TOT=    435.3809090 <-- SPRD
 Delta: O_D= -0.3587108E+01 O_OD= -0.3629225E+01 O_TOT= -0.7216334E+01 <-- DLTA
 ------------------------------------------------------------------------------
 Cycle:     19
  WF centre and spread    1  ( -0.006751,  7.545237, -0.009780 )     3.55297439
  WF centre and spread    2  (  0.002904,  0.925859,  0.319271 )    17.15812091
  WF centre and spread    3  (  0.004926,  9.129650,  0.008321 )     3.57878149
  WF centre and spread    4  ( -0.179565,  2.010710,  0.642957 )    23.17514597
  WF centre and spread    5  (  0.199449,  4.605585, -0.044548 )    16.49679821
  WF centre and spread    6  (  0.003264,  6.610701,  0.549867 )    22.25979417
  WF centre and spread    7  ( -0.985467,  4.726042,  1.736821 )    21.66953819
  WF centre and spread    8  (  0.397081,  2.439499,  0.399073 )    17.40087511
  WF centre and spread    9  (  0.713135,  6.651128, -0.627497 )    17.98771733
  WF centre and spread   10  ( -0.125113,  4.894431,  0.607339 )    20.82217583
  WF centre and spread   11  (  0.430533,  5.247436, -0.572948 )    20.10977849
  WF centre and spread   12  (  1.839422,  2.731104,  0.634108 )    16.55435293
  WF centre and spread   13  (  0.362902,  7.782245,  1.450731 )    18.62468188
  WF centre and spread   14  ( -0.640075,  3.914840,  0.380365 )    20.49349235
  WF centre and spread   15  ( -0.785727,  5.463305,  0.324120 )    21.43208362
  WF centre and spread   16  ( -0.377162,  4.242682,  0.767335 )    19.57579576
  WF centre and spread   17  (  0.222276,  5.742621,  0.551101 )    20.81661989
  WF centre and spread   18  ( -0.027761,  5.790951,  0.467388 )    20.52581355
  WF centre and spread   19  (  0.211602,  3.568780,  0.171326 )    17.94763223
  WF centre and spread   20  ( -0.333279,  3.757108,  0.424620 )    19.11944905
  WF centre and spread   21  ( -0.190114,  5.993073,  0.921782 )    20.91292550
  WF centre and spread   22  ( -0.500214,  5.075733,  0.606609 )    21.55798456
  Sum of centres and spreads (  0.236267,108.848719,  9.708361 )   401.77253140
 
     19    -0.336E+02    11.1548615180      401.7725318195       0.39  <-- CONV
        O_D=     45.7261887 O_OD=    319.5485091 O_TOT=    401.7725318 <-- SPRD
 Delta: O_D= -0.9782801E+01 O_OD= -0.2382558E+02 O_TOT= -0.3360838E+02 <-- DLTA
 ------------------------------------------------------------------------------
 Cycle:     20
  WF centre and spread    1  ( -0.013698,  7.292742,  0.019482 )     3.41265786
  WF centre and spread    2  ( -0.000004,  0.646842,  0.322364 )    17.84711310
  WF centre and spread    3  (  0.016881,  9.458294, -0.007012 )     5.69870904
  WF centre and spread    4  ( -0.066017,  2.034417,  0.700560 )    21.30957436
  WF centre and spread    5  (  0.200350,  4.323991,  0.051144 )    15.60961157
  WF centre and spread    6  (  0.089161,  7.405405,  0.790486 )    17.76157836
  WF centre and spread    7  ( -1.141121,  4.318350,  1.791608 )    20.88890227
  WF centre and spread    8  (  0.397992,  1.646361,  0.388338 )    13.71413428
  WF centre and spread    9  (  0.668328,  7.361390, -0.710798 )    14.75223021
  WF centre and spread   10  ( -0.123408,  4.966526,  0.827085 )    19.71103378
  WF centre and spread   11  (  0.300501,  5.526362, -0.507240 )    18.67815886
  WF centre and spread   12  (  2.040556,  2.070856,  0.642765 )    13.62933925
  WF centre and spread   13  (  0.367788,  8.485796,  1.241781 )    14.51801994
  WF centre and spread   14  ( -0.760827,  3.352125,  0.600905 )    19.63376197
  WF centre and spread   15  ( -0.789774,  5.863168,  0.354593 )    20.43578444
  WF centre and spread   16  ( -0.295740,  3.694748,  0.959693 )    17.06160471
  WF centre and spread   17  (  0.160910,  6.387406,  0.608692 )    19.43636016
  WF centre and spread   18  ( -0.175139,  6.352646,  0.710206 )    19.33583631
  WF centre and spread   19  (  0.305150,  2.771603,  0.002916 )    14.59085137
  WF centre and spread   20  ( -0.364091,  3.055317,  0.359840 )    16.85742111
  WF centre and spread   21  ( -0.167767,  6.641134,  0.913520 )    18.83578113
  WF centre and spread   22  ( -0.659272,  5.223834,  0.677467 )    20.79281588
  Sum of centres and spreads ( -0.009242,108.879315, 10.738395 )   364.51127995
 
     20    -0.373E+02     9.5095060253      364.5112803654       0.41  <-- CONV
        O_D=     44.9406168 O_OD=    283.0728296 O_TOT=    364.5112804 <-- SPRD
 Delta: O_D= -0.7855720E+00 O_OD= -0.3647568E+02 O_TOT= -0.3726125E+02 <-- DLTA
 ------------------------------------------------------------------------------
 Cycle:     21
  WF centre and spread    1  ( -0.013592,  7.295060,  0.020029 )     3.33507004
  WF centre and spread    2  ( -0.000072,  0.629408,  0.323543 )    17.58510174
  WF centre and spread    3  (  0.016722,  9.478690, -0.007466 )     5.37223088
  WF centre and spread    4  ( -0.066928,  2.025188,  0.698121 )    21.06344246
  WF centre and spread    5  (  0.201629,  4.313761,  0.052014 )    15.54584942
  WF centre and spread    6  (  0.095914,  7.426163,  0.793747 )    17.58355039
  WF centre and spread    7  ( -1.141256,  4.303579,  1.785202 )    20.78370760
  WF centre and spread    8  (  0.396686,  1.628261,  0.388034 )    13.54536202
  WF centre and spread    9  (  0.670832,  7.376381, -0.713010 )    14.62947587
  WF centre and spread   10  ( -0.124996,  4.967834,  0.824676 )    19.61360662
  WF centre and spread   11  (  0.299197,  5.533587, -0.503751 )    18.59342232
  WF centre and spread   12  (  2.046985,  2.054278,  0.652362 )    13.48399123
  WF centre and spread   13  (  0.364239,  8.500788,  1.255695 )    14.34013335
  WF centre and spread   14  ( -0.765688,  3.348855,  0.547189 )    18.79498862
  WF centre and spread   15  ( -0.786265,  5.871467,  0.350275 )    20.34334567
  WF centre and spread   16  ( -0.295861,  3.674465,  0.971900 )    16.91629953
  WF centre and spread   17  (  0.159455,  6.407192,  0.610618 )    19.28811897
  WF centre and spread   18  ( -0.189463,  6.367625,  0.701032 )    19.19808515
  WF centre and spread   19  (  0.308037,  2.751813, -0.000199 )    14.46840937
  WF centre and spread   20  ( -0.363437,  3.034094,  0.363362 )    16.73102458
  WF centre and spread   21  ( -0.192460,  6.663637,  0.922762 )    18.52097844
  WF centre and spread   22  ( -0.658197,  5.229244,  0.674883 )    20.73698973
  Sum of centres and spreads ( -0.038518,108.881369, 10.711018 )   360.47318401
 
     21    -0.404E+01    18.4243372676      360.4731844166       0.42  <-- CONV
        O_D=     42.7453345 O_OD=    281.2300159 O_TOT=    360.4731844 <-- SPRD
 Delta: O_D= -0.2195282E+01 O_OD= -0.1842814E+01 O_TOT= -0.4038096E+01 <-- DLTA
 ------------------------------------------------------------------------------
 Cycle:     22
  WF centre and spread    1  ( -0.012359,  7.290032,  0.030706 )     2.53466292
  WF centre and spread    2  ( -0.002802,  0.446368,  0.343656 )    14.73524019
  WF centre and spread    3  (  0.015028,  9.691490, -0.015737 )     2.42343133
  WF centre and spread    4  ( -0.054337,  1.937899,  0.656867 )    18.01556381
  WF centre and spread    5  (  0.224060,  4.153184,  0.064073 )    14.79728561
  WF centre and spread    6  (  0.149875,  7.745742,  0.832562 )    15.43373896
  WF centre and spread    7  ( -1.147592,  4.043426,  1.689239 )    19.95883882
  WF centre and spread    8  (  0.389832,  1.380570,  0.383745 )    11.58927764
  WF centre and spread    9  (  0.703010,  7.605377, -0.757988 )    12.97478998
  WF centre and spread   10  ( -0.151088,  4.994693,  0.806546 )    18.56760835
  WF centre and spread   11  (  0.278478,  5.670891, -0.457210 )    17.49973771
  WF centre and spread   12  (  2.156194,  1.848927,  0.707267 )    11.96293577
  WF centre and spread   13  (  0.331581,  8.678624,  1.209308 )    12.65932551
  WF centre and spread   14  ( -0.847729,  3.153074,  0.626742 )    17.47853568
  WF centre and spread   15  ( -0.740837,  6.032886,  0.296777 )    19.40012933
  WF centre and spread   16  ( -0.296059,  3.403782,  1.122386 )    15.11701282
  WF centre and spread   17  (  0.136649,  6.713502,  0.621768 )    17.72487920
  WF centre and spread   18  ( -0.356084,  6.650650,  0.735803 )    17.98260524
  WF centre and spread   19  (  0.344003,  2.443406, -0.058591 )    12.54468444
  WF centre and spread   20  ( -0.352701,  2.711525,  0.412277 )    14.93279583
  WF centre and spread   21  ( -0.289919,  6.986907,  0.920423 )    16.49539368
  WF centre and spread   22  ( -0.668989,  5.326908,  0.631902 )    20.35249977
  Sum of centres and spreads ( -0.191786,108.909863, 10.802519 )   325.18097258
 
     22    -0.353E+02    12.6897611324      325.1809729001       0.44  <-- CONV
        O_D=     32.2499871 O_OD=    256.4331518 O_TOT=    325.1809729 <-- SPRD
 Delta: O_D= -0.1049535E+02 O_OD= -0.2479686E+02 O_TOT= -0.3529221E+02 <-- DLTA
 ------------------------------------------------------------------------------
 Cycle:     23
  WF centre and spread    1  ( -0.010909,  7.203257,  0.048391 )     2.49588547
  WF centre and spread    2  ( -0.025697,  0.371966,  0.377309 )    13.13104182
  WF centre and spread    3  (  0.018943,  9.788161, -0.028737 )     3.30181811
  WF centre and spread    4  ( -0.052103,  1.947923,  0.641810 )    15.81579358
  WF centre and spread    5  (  0.228340,  3.927764,  0.126531 )    14.18908438
  WF centre and spread    6  (  0.157140,  8.124558,  0.896175 )    13.63534349
  WF centre and spread    7  ( -1.237448,  3.643574,  1.729620 )    18.84612917
  WF centre and spread    8  (  0.404900,  1.174990,  0.378209 )    10.59116241
  WF centre and spread    9  (  0.715800,  7.846118, -0.822516 )    11.62283582
  WF centre and spread   10  ( -0.154778,  5.070715,  0.858052 )    18.00604347
  WF centre and spread   11  (  0.244745,  5.869517, -0.443556 )    16.46528566
  WF centre and spread   12  (  2.255105,  1.679298,  0.704147 )    11.12570754
  WF centre and spread   13  (  0.308872,  8.754106,  1.007932 )    11.63635519
  WF centre and spread   14  ( -0.924523,  2.833209,  0.730505 )    16.16130877
  WF centre and spread   15  ( -0.712633,  6.250189,  0.243497 )    18.81097734
  WF centre and spread   16  ( -0.257685,  3.098772,  1.290213 )    13.25637122
  WF centre and spread   17  (  0.110038,  7.087820,  0.678562 )    16.34191023
  WF centre and spread   18  ( -0.388016,  7.077193,  0.853127 )    16.48608751
  WF centre and spread   19  (  0.384891,  2.117900, -0.153120 )    10.59814994
  WF centre and spread   20  ( -0.331739,  2.316798,  0.362348 )    13.01003309
  WF centre and spread   21  ( -0.336013,  7.284339,  0.887542 )    14.80291409
  WF centre and spread   22  ( -0.762806,  5.473695,  0.681929 )    20.00696247
  Sum of centres and spreads ( -0.365576,108.941863, 11.047971 )   300.33720078
 
     23    -0.248E+02     9.4939636112      300.3372010774       0.45  <-- CONV
        O_D=     27.9988845 O_OD=    235.8404826 O_TOT=    300.3372011 <-- SPRD
 Delta: O_D= -0.4251103E+01 O_OD= -0.2059267E+02 O_TOT= -0.2484377E+02 <-- DLTA
 ------------------------------------------------------------------------------
 Cycle:     24
  WF centre and spread    1  (  0.000925,  7.070637,  0.097019 )     3.54543503
  WF centre and spread    2  ( -0.074223,  0.332065,  0.476286 )    11.62072356
  WF centre and spread    3  (  0.028201,  9.970286, -0.065344 )     7.13502636
  WF centre and spread    4  ( -0.167599,  2.096558,  0.631123 )    15.27295625
  WF centre and spread    5  (  0.194730,  3.575577,  0.324427 )    14.37642822
  WF centre and spread    6  (  0.366332,  8.430582,  1.003203 )    14.22175467
  WF centre and spread    7  ( -1.209114,  3.159748,  1.438507 )    20.65110804
  WF centre and spread    8  (  0.565615,  1.190715,  0.313731 )    13.33413396
  WF centre and spread    9  (  0.767837,  7.898608, -0.951973 )    12.60038774
  WF centre and spread   10  ( -0.116612,  5.153593,  1.113545 )    18.82579664
  WF centre and spread   11  (  0.214332,  5.916719, -0.442107 )    16.03424590
  WF centre and spread   12  (  2.372518,  1.728591,  0.724595 )    13.07850364
  WF centre and spread   13  (  0.102747,  8.590031,  0.770430 )    12.71821120
  WF centre and spread   14  ( -0.638135,  2.524067,  0.775234 )    20.32789622
  WF centre and spread   15  ( -0.435127,  6.388117,  0.154768 )    19.45574178
  WF centre and spread   16  ( -0.182690,  3.046509,  1.467169 )    13.20416131
  WF centre and spread   17  (  0.130169,  7.273889,  0.951455 )    16.50949210
  WF centre and spread   18  ( -0.613105,  7.371193,  1.097087 )    16.06661741
  WF centre and spread   19  (  0.359632,  2.128140, -0.188795 )    11.65071804
  WF centre and spread   20  ( -0.285788,  2.197969,  0.403888 )    13.46754534
  WF centre and spread   21  ( -0.395342,  7.275295,  0.814783 )    16.12433780
  WF centre and spread   22  ( -0.855605,  5.539313,  0.623354 )    22.93929039
  Sum of centres and spreads (  0.129697,108.858202, 11.532383 )   323.16051159
 
     24     0.228E+02    11.0978302652      323.1605119876       0.47  <-- CONV
        O_D=     40.3291494 O_OD=    246.3335285 O_TOT=    323.1605120 <-- SPRD
 Delta: O_D=  0.1233026E+02 O_OD=  0.1049305E+02 O_TOT=  0.2282331E+02 <-- DLTA
 ------------------------------------------------------------------------------
 Cycle:     25
  WF centre and spread    1  (  0.000749,  7.073561,  0.096970 )     3.48408581
  WF centre and spread    2  ( -0.073282,  0.320619,  0.476411 )    11.36092907
  WF centre and spread    3  (  0.027985,  9.979603, -0.065629 )     6.86544478
  WF centre and spread    4  ( -0.173005,  2.088160,  0.631320 )    15.10870884
  WF centre and spread    5  (  0.195836,  3.569651,  0.321873 )    14.30975790
  WF centre and spread    6  (  0.354817,  8.446949,  0.999125 )    13.99003953
  WF centre and spread    7  ( -1.225011,  3.146622,  1.475117 )    19.19239800
  WF centre and spread    8  (  0.565297,  1.177169,  0.316241 )    13.14612881
  WF centre and spread    9  (  0.766836,  7.910423, -0.952465 )    12.47385204
  WF centre and spread   10  ( -0.113887,  5.153207,  1.116765 )    18.76739313
  WF centre and spread   11  (  0.212311,  5.920647, -0.440908 )    15.95504120
  WF centre and spread   12  (  2.371596,  1.715026,  0.726425 )    12.93569241
  WF centre and spread   13  (  0.116368,  8.602783,  0.785881 )    12.46463373
  WF centre and spread   14  ( -0.719162,  2.511213,  0.771911 )    18.87939934
  WF centre and spread   15  ( -0.422868,  6.400503,  0.158913 )    19.18669247
  WF centre and spread   16  ( -0.182150,  3.034026,  1.465039 )    13.07418261
  WF centre and spread   17  (  0.125354,  7.288303,  0.947408 )    16.33170211
  WF centre and spread   18  ( -0.608887,  7.390396,  1.098834 )    15.87886797
  WF centre and spread   19  (  0.362074,  2.113892, -0.189273 )    11.49180630
  WF centre and spread   20  ( -0.285471,  2.182945,  0.405777 )    13.31993011
  WF centre and spread   21  ( -0.395323,  7.290253,  0.834973 )    15.87399922
  WF centre and spread   22  ( -0.850214,  5.544852,  0.643146 )    22.07293622
  Sum of centres and spreads (  0.049963,108.860804, 11.623854 )   316.16362160
 
     25    -0.700E+01    45.4671579514      316.1636219990       0.48  <-- CONV
        O_D=     35.5213727 O_OD=    244.1444153 O_TOT=    316.1636220 <-- SPRD
 Delta: O_D= -0.4807777E+01 O_OD= -0.2189113E+01 O_TOT= -0.6996890E+01 <-- DLTA
 ------------------------------------------------------------------------------
 Cycle:     26
  WF centre and spread    1  (  0.000234,  7.098808,  0.097614 )     2.95229747
  WF centre and spread    2  ( -0.064532,  0.227339,  0.475235 )     9.19584959
  WF centre and spread    3  (  0.025714, 10.054776, -0.068556 )     4.66276233
  WF centre and spread    4  ( -0.212207,  2.019210,  0.633146 )    13.74039770
  WF centre and spread    5  (  0.208031,  3.504066,  0.307045 )    13.73012162
  WF centre and spread    6  (  0.281174,  8.590035,  0.980954 )    12.35737674
  WF centre and spread    7  ( -1.157545,  3.051037,  1.317843 )    17.58737973
  WF centre and spread    8  (  0.558028,  1.054671,  0.336756 )    11.52913414
  WF centre and spread    9  (  0.754373,  8.011898, -0.960714 )    11.33540565
  WF centre and spread   10  ( -0.112717,  5.168021,  1.143218 )    18.13318861
  WF centre and spread   11  (  0.205766,  5.965469, -0.429278 )    15.25487371
  WF centre and spread   12  (  2.378564,  1.600105,  0.719806 )    11.71362089
  WF centre and spread   13  (  0.145612,  8.712323,  0.845044 )    10.99723825
  WF centre and spread   14  ( -0.847349,  2.401895,  0.722441 )    15.29234431
  WF centre and spread   15  ( -0.393715,  6.500433,  0.195609 )    18.11632048
  WF centre and spread   16  ( -0.182183,  2.946701,  1.476045 )    11.95164921
  WF centre and spread   17  (  0.093062,  7.410100,  0.910580 )    14.94498885
  WF centre and spread   18  ( -0.577487,  7.538377,  1.099427 )    14.40202622
  WF centre and spread   19  (  0.375759,  1.992706, -0.199553 )    10.16363085
  WF centre and spread   20  ( -0.278293,  2.051999,  0.423356 )    12.02145559
  WF centre and spread   21  ( -0.394615,  7.417764,  0.894851 )    14.32925699
  WF centre and spread   22  ( -0.825232,  5.561042,  0.666369 )    20.18226903
  Sum of centres and spreads ( -0.019558,108.878775, 11.587241 )   284.59358794
 
     26    -0.316E+02    22.1452838475      284.5935883238       0.50  <-- CONV
        O_D=     23.4916638 O_OD=    224.6040905 O_TOT=    284.5935883 <-- SPRD
 Delta: O_D= -0.1202971E+02 O_OD= -0.1954032E+02 O_TOT= -0.3157003E+02 <-- DLTA
 ------------------------------------------------------------------------------
 Cycle:     27
  WF centre and spread    1  ( -0.000754,  7.145789,  0.100955 )     2.03011218
  WF centre and spread    2  ( -0.058596,  0.095169,  0.500260 )     5.66697534
  WF centre and spread    3  (  0.021461, 10.137089, -0.077088 )     1.98370699
  WF centre and spread    4  ( -0.271400,  1.904989,  0.655024 )    10.43130040
  WF centre and spread    5  (  0.200892,  3.268077,  0.270822 )    12.29106003
  WF centre and spread    6  (  0.248644,  8.883821,  0.974681 )     9.42536866
  WF centre and spread    7  ( -1.223774,  2.773428,  1.012580 )    16.15384170
  WF centre and spread    8  (  0.536900,  0.839226,  0.394375 )     8.50803829
  WF centre and spread    9  (  0.725211,  8.215257, -1.000424 )     9.06554844
  WF centre and spread   10  ( -0.142534,  5.228351,  1.189446 )    16.63228555
  WF centre and spread   11  (  0.170507,  6.095675, -0.379565 )    13.22451765
  WF centre and spread   12  (  2.400968,  1.374825,  0.678283 )     9.28629569
  WF centre and spread   13  (  0.107510,  8.874005,  0.833347 )     8.26046340
  WF centre and spread   14  ( -0.835109,  2.142066,  0.688107 )    12.54318365
  WF centre and spread   15  ( -0.322734,  6.767697,  0.178716 )    16.09208326
  WF centre and spread   16  ( -0.166591,  2.768393,  1.531885 )     9.26269191
  WF centre and spread   17  (  0.053730,  7.692034,  0.900473 )    12.27844587
  WF centre and spread   18  ( -0.562923,  7.849911,  1.082212 )    11.24529904
  WF centre and spread   19  (  0.395743,  1.740809, -0.225317 )     7.44411321
  WF centre and spread   20  ( -0.249591,  1.776338,  0.463049 )     9.19803421
  WF centre and spread   21  ( -0.388801,  7.726591,  0.901784 )    10.93501521
  WF centre and spread   22  ( -0.887173,  5.612287,  0.628150 )    18.79035518
  Sum of centres and spreads ( -0.248412,108.911828, 11.301753 )   230.74873583
 
     27    -0.538E+02    15.4929519888      230.7487361227       0.51  <-- CONV
        O_D=     14.6697115 O_OD=    179.5811906 O_TOT=    230.7487361 <-- SPRD
 Delta: O_D= -0.8821952E+01 O_OD= -0.4502290E+02 O_TOT= -0.5384485E+02 <-- DLTA
 ------------------------------------------------------------------------------
 Cycle:     28
  WF centre and spread    1  (  0.000817,  7.144524,  0.103729 )     2.12420989
  WF centre and spread    2  ( -0.076021,  0.069389,  0.619234 )     5.52466842
  WF centre and spread    3  (  0.021069, 10.151676, -0.085120 )     2.39544981
  WF centre and spread    4  ( -0.286813,  1.929588,  0.657233 )     9.12893373
  WF centre and spread    5  (  0.206953,  3.124276,  0.228372 )    11.45792079
  WF centre and spread    6  (  0.272271,  8.944217,  0.963223 )     8.97183597
  WF centre and spread    7  ( -1.164979,  2.628293,  0.999046 )    14.29147506
  WF centre and spread    8  (  0.549885,  0.820333,  0.411081 )     8.03463296
  WF centre and spread    9  (  0.749459,  8.241488, -1.028887 )     8.95428775
  WF centre and spread   10  ( -0.177714,  5.278995,  1.189956 )    15.84408071
  WF centre and spread   11  (  0.151211,  6.118611, -0.365787 )    12.19109986
  WF centre and spread   12  (  2.407245,  1.362706,  0.658163 )     9.17927810
  WF centre and spread   13  (  0.081711,  8.859838,  0.773287 )     7.90587487
  WF centre and spread   14  ( -0.813148,  2.052966,  0.648198 )    11.90524407
  WF centre and spread   15  ( -0.267508,  6.899584,  0.122313 )    15.02234963
  WF centre and spread   16  ( -0.153651,  2.777496,  1.563361 )     8.77248275
  WF centre and spread   17  (  0.057607,  7.746932,  0.956607 )    11.37989191
  WF centre and spread   18  ( -0.562450,  7.906652,  1.103619 )    10.68065970
  WF centre and spread   19  (  0.379427,  1.721960, -0.218928 )     7.25888744
  WF centre and spread   20  ( -0.232421,  1.751532,  0.490971 )     8.88450734
  WF centre and spread   21  ( -0.401375,  7.760731,  0.917277 )    10.43926603
  WF centre and spread   22  ( -0.888550,  5.598906,  0.673807 )    18.22896053
  Sum of centres and spreads ( -0.146974,108.890691, 11.380755 )   218.57599734
 
     28    -0.122E+02    10.5811122408      218.5759976788       0.53  <-- CONV
        O_D=     12.8871332 O_OD=    169.1910305 O_TOT=    218.5759977 <-- SPRD
 Delta: O_D= -0.1782578E+01 O_OD= -0.1039016E+02 O_TOT= -0.1217274E+02 <-- DLTA
 ------------------------------------------------------------------------------
 Cycle:     29
  WF centre and spread    1  (  0.003937,  7.148717,  0.108083 )     2.04779690
  WF centre and spread    2  ( -0.058300,  0.022418,  0.743904 )     5.45105032
  WF centre and spread    3  (  0.020552, 10.183591, -0.095174 )     2.26328434
  WF centre and spread    4  ( -0.372642,  1.955851,  0.665385 )     8.52218825
  WF centre and spread    5  (  0.225211,  2.962855,  0.165105 )    10.45091368
  WF centre and spread    6  (  0.293214,  9.045426,  0.958247 )     8.22647473
  WF centre and spread    7  ( -1.094793,  2.458431,  0.909183 )    13.00325231
  WF centre and spread    8  (  0.579013,  0.774351,  0.426180 )     7.39019497
  WF centre and spread    9  (  0.807640,  8.300486, -1.064508 )     8.66435667
  WF centre and spread   10  (  0.008248,  5.346465,  1.146891 )    16.06746324
  WF centre and spread   11  (  0.132378,  6.121028, -0.354312 )    11.00604087
  WF centre and spread   12  (  2.425221,  1.337858,  0.634789 )     8.75312381
  WF centre and spread   13  (  0.047855,  8.885151,  0.675742 )     7.23247510
  WF centre and spread   14  ( -0.786670,  1.938831,  0.598444 )    10.86652477
  WF centre and spread   15  ( -0.215872,  7.062763,  0.070635 )    13.77078209
  WF centre and spread   16  ( -0.152957,  2.799688,  1.592839 )     8.40153307
  WF centre and spread   17  (  0.054416,  7.822754,  1.056403 )    10.25612521
  WF centre and spread   18  ( -0.584121,  7.987243,  1.083854 )     9.76622042
  WF centre and spread   19  (  0.354007,  1.697775, -0.210379 )     6.83233580
  WF centre and spread   20  ( -0.210864,  1.711785,  0.520332 )     8.16462320
  WF centre and spread   21  ( -0.411974,  7.771447,  0.936496 )     9.93949541
  WF centre and spread   22  ( -0.919852,  5.536329,  0.627559 )    17.88966802
  Sum of centres and spreads (  0.143646,108.871243, 11.195701 )   204.96592318
 
     29    -0.136E+02    10.6066956939      204.9659235068       0.54  <-- CONV
        O_D=     13.2973443 O_OD=    155.1707452 O_TOT=    204.9659235 <-- SPRD
 Delta: O_D=  0.4102111E+00 O_OD= -0.1402029E+02 O_TOT= -0.1361007E+02 <-- DLTA
 ------------------------------------------------------------------------------
 Cycle:     30
  WF centre and spread    1  (  0.004340,  7.149322,  0.108987 )     2.03219770
[...]
  WF centre and spread   12  (  3.477626,  1.739904,  0.025562 )     2.39208059
  WF centre and spread   13  ( -0.537043,  9.424242, -0.293395 )     1.88115564
  WF centre and spread   14  ( -0.017042,  1.726987, -0.024718 )     2.14977740
  WF centre and spread   15  ( -0.548166,  6.966813, -0.342554 )     1.93839961
  WF centre and spread   16  ( -0.046695,  3.784440,  1.961811 )     1.51809568
  WF centre and spread   17  ( -0.008478,  8.155607,  1.957158 )     2.19863890
  WF centre and spread   18  ( -0.043902,  8.088783,  2.014075 )     3.67207357
  WF centre and spread   19  (  1.149668,  0.451309, -0.667945 )     1.84863896
  WF centre and spread   20  ( -0.058982,  1.732653,  0.005383 )     2.19782203
  WF centre and spread   21  ( -1.689163,  8.083040, -0.994337 )     3.60997693
  WF centre and spread   22  ( -0.057571,  6.719112,  0.392706 )     2.37063765
  Sum of centres and spreads ( -0.049420,108.683374,  9.856480 )    45.67950263
 
     93    -0.678E-01     0.6044475928       45.6795035327       1.51  <-- CONV
        O_D=      0.5675967 O_OD=      8.6140728 O_TOT=     45.6795035 <-- SPRD
 Delta: O_D=  0.6049338E-02 O_OD= -0.7380026E-01 O_TOT= -0.6775093E-01 <-- DLTA
 ------------------------------------------------------------------------------
 Cycle:     94
  WF centre and spread    1  (  0.466993,  7.085770,  0.025708 )     1.97569872
  WF centre and spread    2  (  0.000108, -0.423719,  1.964402 )     1.35841560
  WF centre and spread    3  ( -0.009389, 10.307052, -0.027178 )     1.42280002
  WF centre and spread    4  ( -0.550107,  2.913660,  2.265870 )     1.93494206
  WF centre and spread    5  (  0.041647,  2.944668,  1.314513 )     1.99354372
  WF centre and spread    6  (  0.003588,  9.471900,  0.644181 )     1.89743736
  WF centre and spread    7  ( -1.138052,  0.451512, -0.679085 )     1.85416078
  WF centre and spread    8  ( -0.015697,  0.429615,  1.343422 )     1.95865668
  WF centre and spread    9  (  0.553156,  9.442610, -0.296330 )     1.87142270
  WF centre and spread   10  ( -1.149664,  2.990644, -0.638049 )     1.98348425
  WF centre and spread   11  (  0.123708,  6.169817, -0.111104 )     1.59593178
  WF centre and spread   12  (  3.474357,  1.740626,  0.022702 )     2.37158231
  WF centre and spread   13  ( -0.537634,  9.428892, -0.296399 )     1.88545096
  WF centre and spread   14  ( -0.015145,  1.738761, -0.034528 )     2.16758078
  WF centre and spread   15  ( -0.550527,  6.966688, -0.346108 )     1.92730021
  WF centre and spread   16  ( -0.038990,  3.786861,  1.960918 )     1.51503659
  WF centre and spread   17  ( -0.007465,  8.156935,  1.957513 )     2.16258527
  WF centre and spread   18  ( -0.036815,  8.088533,  2.015678 )     3.69335591
  WF centre and spread   19  (  1.153610,  0.446857, -0.658515 )     1.84740624
  WF centre and spread   20  ( -0.057764,  1.731319,  0.006821 )     2.18623555
  WF centre and spread   21  ( -1.693702,  8.081401, -1.001774 )     3.61619413
  WF centre and spread   22  ( -0.058831,  6.731904,  0.417349 )     2.34727661
  Sum of centres and spreads ( -0.042617,108.682306,  9.850007 )    45.56649824
 
     94    -0.113E+00     0.6694170959       45.5664991410       1.53  <-- CONV
        O_D=      0.6059907 O_OD=      8.4626744 O_TOT=     45.5664991 <-- SPRD
 Delta: O_D=  0.3839401E-01 O_OD= -0.1513984E+00 O_TOT= -0.1130044E+00 <-- DLTA
 ------------------------------------------------------------------------------
 Cycle:     95
  WF centre and spread    1  (  0.467144,  7.085613,  0.025270 )     1.97590327
  WF centre and spread    2  (  0.000122, -0.423766,  1.964437 )     1.35727347
  WF centre and spread    3  ( -0.009317, 10.307141, -0.027276 )     1.42136634
  WF centre and spread    4  ( -0.550209,  2.913721,  2.265844 )     1.93390571
  WF centre and spread    5  (  0.041561,  2.944725,  1.314513 )     1.99207330
  WF centre and spread    6  (  0.003570,  9.471901,  0.644113 )     1.89712667
  WF centre and spread    7  ( -1.138116,  0.451436, -0.679133 )     1.85338197
  WF centre and spread    8  ( -0.015718,  0.429645,  1.343354 )     1.95753735
  WF centre and spread    9  (  0.553198,  9.442629, -0.296393 )     1.87034758
  WF centre and spread   10  ( -1.149625,  2.990515, -0.638042 )     1.98258938
  WF centre and spread   11  (  0.123474,  6.169766, -0.110732 )     1.59522472
  WF centre and spread   12  (  3.474360,  1.740607,  0.022725 )     2.37140540
  WF centre and spread   13  ( -0.537706,  9.428969, -0.296375 )     1.88474057
  WF centre and spread   14  ( -0.015156,  1.738665, -0.034446 )     2.16627060
  WF centre and spread   15  ( -0.550552,  6.966640, -0.346162 )     1.92741201
  WF centre and spread   16  ( -0.038883,  3.786894,  1.960923 )     1.51452434
  WF centre and spread   17  ( -0.007512,  8.156892,  1.957767 )     2.16268415
  WF centre and spread   18  ( -0.034641,  8.088276,  2.015147 )     3.69334025
  WF centre and spread   19  (  1.153725,  0.446802, -0.658513 )     1.84718419
  WF centre and spread   20  ( -0.057774,  1.731311,  0.006793 )     2.18604588
  WF centre and spread   21  ( -1.697258,  8.081702, -0.991427 )     3.59218239
  WF centre and spread   22  ( -0.058876,  6.732237,  0.417931 )     2.34621040
  Sum of centres and spreads ( -0.044189,108.682321,  9.860317 )    45.52872994
 
     95    -0.378E-01     0.8854455234       45.5287308372       1.54  <-- CONV
        O_D=      0.5834204 O_OD=      8.4474764 O_TOT=     45.5287308 <-- SPRD
 Delta: O_D= -0.2257036E-01 O_OD= -0.1519795E-01 O_TOT= -0.3776830E-01 <-- DLTA
 ------------------------------------------------------------------------------
 Cycle:     96
  WF centre and spread    1  (  0.468786,  7.084850,  0.021763 )     1.97763725
  WF centre and spread    2  (  0.000134, -0.423715,  1.964565 )     1.35822504
  WF centre and spread    3  ( -0.009144, 10.307293, -0.026780 )     1.41986458
  WF centre and spread    4  ( -0.550642,  2.914111,  2.265742 )     1.93130984
  WF centre and spread    5  (  0.041156,  2.945049,  1.314605 )     1.98805678
  WF centre and spread    6  (  0.003532,  9.471409,  0.644257 )     1.89632756
  WF centre and spread    7  ( -1.138391,  0.451251, -0.679358 )     1.85312179
  WF centre and spread    8  ( -0.015803,  0.429976,  1.343043 )     1.95560242
  WF centre and spread    9  (  0.553023,  9.442818, -0.296723 )     1.87018955
  WF centre and spread   10  ( -1.149451,  2.989917, -0.637981 )     1.98103985
  WF centre and spread   11  (  0.122409,  6.168948, -0.110259 )     1.59562474
  WF centre and spread   12  (  3.474461,  1.740574,  0.022802 )     2.37132090
  WF centre and spread   13  ( -0.537709,  9.429452, -0.296505 )     1.88280750
  WF centre and spread   14  ( -0.015166,  1.738280, -0.034098 )     2.16206466
  WF centre and spread   15  ( -0.550900,  6.966881, -0.346263 )     1.92525944
  WF centre and spread   16  ( -0.038292,  3.787090,  1.960872 )     1.51353467
  WF centre and spread   17  ( -0.007499,  8.156863,  1.957677 )     2.16152285
  WF centre and spread   18  ( -0.036072,  8.087119,  2.012757 )     3.69893513
  WF centre and spread   19  (  1.154208,  0.446700, -0.658466 )     1.84838556
  WF centre and spread   20  ( -0.057787,  1.731294,  0.006663 )     2.18598082
  WF centre and spread   21  ( -1.695710,  8.082193, -0.993678 )     3.58110050
  WF centre and spread   22  ( -0.059109,  6.733743,  0.420760 )     2.34245432
  Sum of centres and spreads ( -0.043964,108.682098,  9.855395 )    45.50036572
 
     96    -0.284E-01     0.3855929470       45.5003666205       1.56  <-- CONV
        O_D=      0.5808586 O_OD=      8.4216740 O_TOT=     45.5003666 <-- SPRD
 Delta: O_D= -0.2561815E-02 O_OD= -0.2580240E-01 O_TOT= -0.2836422E-01 <-- DLTA
 ------------------------------------------------------------------------------
 Cycle:     97
  WF centre and spread    1  (  0.472169,  7.083418,  0.014561 )     1.97846758
  WF centre and spread    2  (  0.000152, -0.423659,  1.964766 )     1.35815858
  WF centre and spread    3  ( -0.008804, 10.307640, -0.025780 )     1.41611383
  WF centre and spread    4  ( -0.551468,  2.914858,  2.265533 )     1.92840871
  WF centre and spread    5  (  0.040417,  2.945565,  1.314816 )     1.98588516
  WF centre and spread    6  (  0.003491,  9.470469,  0.644434 )     1.89451358
  WF centre and spread    7  ( -1.138868,  0.451025, -0.679777 )     1.85425691
  WF centre and spread    8  ( -0.015968,  0.430649,  1.342380 )     1.95167364
  WF centre and spread    9  (  0.552676,  9.443212, -0.297327 )     1.86912235
  WF centre and spread   10  ( -1.149200,  2.988540, -0.637946 )     1.98109434
  WF centre and spread   11  (  0.120302,  6.167337, -0.109167 )     1.59523311
  WF centre and spread   12  (  3.474624,  1.740521,  0.022939 )     2.37212512
  WF centre and spread   13  ( -0.537781,  9.430378, -0.296775 )     1.87913138
  WF centre and spread   14  ( -0.015124,  1.737599, -0.033427 )     2.15698219
  WF centre and spread   15  ( -0.551453,  6.967258, -0.346371 )     1.92110793
  WF centre and spread   16  ( -0.037083,  3.787460,  1.960768 )     1.51247286
  WF centre and spread   17  ( -0.007444,  8.156961,  1.957607 )     2.15643434
  WF centre and spread   18  ( -0.033522,  8.085033,  2.016534 )     3.71797335
  WF centre and spread   19  (  1.155016,  0.446620, -0.658319 )     1.85218877
  WF centre and spread   20  ( -0.057808,  1.731286,  0.006452 )     2.18636470
  WF centre and spread   21  ( -1.695740,  8.082507, -0.995832 )     3.57202419
  WF centre and spread   22  ( -0.059615,  6.736746,  0.426639 )     2.33515730
  Sum of centres and spreads ( -0.041031,108.681423,  9.856707 )    45.47488993
 
     97    -0.255E-01     0.3165979380       45.4748908278       1.57  <-- CONV
        O_D=      0.5949200 O_OD=      8.3821368 O_TOT=     45.4748908 <-- SPRD
 Delta: O_D=  0.1406147E-01 O_OD= -0.3953727E-01 O_TOT= -0.2547579E-01 <-- DLTA
 ------------------------------------------------------------------------------
 Cycle:     98
  WF centre and spread    1  (  0.474393,  7.082266,  0.009600 )     1.97930330
  WF centre and spread    2  (  0.000163, -0.423601,  1.964884 )     1.35822465
  WF centre and spread    3  ( -0.008478, 10.307799, -0.025240 )     1.41483046
  WF centre and spread    4  ( -0.552036,  2.915378,  2.265392 )     1.92703223
  WF centre and spread    5  (  0.039954,  2.945828,  1.314932 )     1.98576733
  WF centre and spread    6  (  0.003438,  9.469879,  0.644435 )     1.89363831
  WF centre and spread    7  ( -1.139146,  0.450917, -0.680052 )     1.85547259
  WF centre and spread    8  ( -0.016077,  0.431106,  1.341910 )     1.94866067
  WF centre and spread    9  (  0.552504,  9.443373, -0.297744 )     1.86869248
  WF centre and spread   10  ( -1.149106,  2.987505, -0.638003 )     1.98144619
  WF centre and spread   11  (  0.118683,  6.166290, -0.108230 )     1.59483178
  WF centre and spread   12  (  3.474720,  1.740497,  0.023041 )     2.37288782
  WF centre and spread   13  ( -0.537881,  9.430990, -0.296904 )     1.87755972
  WF centre and spread   14  ( -0.015081,  1.737201, -0.032964 )     2.15464670
  WF centre and spread   15  ( -0.551813,  6.967468, -0.346478 )     1.91874002
  WF centre and spread   16  ( -0.036248,  3.787686,  1.960692 )     1.51180143
  WF centre and spread   17  ( -0.007409,  8.157045,  1.957717 )     2.15266802
  WF centre and spread   18  ( -0.038121,  8.084254,  2.018255 )     3.72733145
  WF centre and spread   19  (  1.155473,  0.446586, -0.658170 )     1.85481475
  WF centre and spread   20  ( -0.057837,  1.731285,  0.006334 )     2.18664788
  WF centre and spread   21  ( -1.698148,  8.082513, -0.992001 )     3.56867436
  WF centre and spread   22  ( -0.059968,  6.738888,  0.430873 )     2.32976117
  Sum of centres and spreads ( -0.048020,108.681151,  9.862281 )    45.46343330
 
     98    -0.115E-01     0.3244536804       45.4634341972       1.59  <-- CONV
        O_D=      0.6040390 O_OD=      8.3615611 O_TOT=     45.4634342 <-- SPRD
 Delta: O_D=  0.9118983E-02 O_OD= -0.2057561E-01 O_TOT= -0.1145663E-01 <-- DLTA
 ------------------------------------------------------------------------------
 Cycle:     99
  WF centre and spread    1  (  0.477467,  7.080962,  0.003059 )     1.97969281
  WF centre and spread    2  (  0.000179, -0.423513,  1.965017 )     1.35857725
  WF centre and spread    3  ( -0.008205, 10.307931, -0.024512 )     1.41417607
  WF centre and spread    4  ( -0.552768,  2.916056,  2.265234 )     1.92604574
  WF centre and spread    5  (  0.039399,  2.946144,  1.315084 )     1.98595455
  WF centre and spread    6  (  0.003453,  9.469097,  0.644441 )     1.89297391
  WF centre and spread    7  ( -1.139459,  0.450821, -0.680379 )     1.85723763
  WF centre and spread    8  ( -0.016212,  0.431706,  1.341328 )     1.94523760
  WF centre and spread    9  (  0.552203,  9.443640, -0.298177 )     1.86857149
  WF centre and spread   10  ( -1.149042,  2.986193, -0.638120 )     1.98205755
  WF centre and spread   11  (  0.116824,  6.164859, -0.107052 )     1.59518320
  WF centre and spread   12  (  3.474858,  1.740486,  0.023188 )     2.37387632
  WF centre and spread   13  ( -0.538056,  9.431642, -0.297154 )     1.87616403
  WF centre and spread   14  ( -0.015029,  1.736735, -0.032373 )     2.15223295
  WF centre and spread   15  ( -0.552157,  6.967577, -0.346528 )     1.91631742
  WF centre and spread   16  ( -0.035155,  3.787969,  1.960619 )     1.51117711
  WF centre and spread   17  ( -0.007302,  8.157166,  1.957761 )     2.14800720
  WF centre and spread   18  ( -0.027036,  8.083785,  2.020259 )     3.73299670
  WF centre and spread   19  (  1.155993,  0.446557, -0.657947 )     1.85810285
  WF centre and spread   20  ( -0.057871,  1.731290,  0.006209 )     2.18708036
  WF centre and spread   21  ( -1.699567,  8.082284, -0.991275 )     3.56751930
  WF centre and spread   22  ( -0.060444,  6.741579,  0.436283 )     2.32328490
  Sum of centres and spreads ( -0.037926,108.680965,  9.864966 )    45.45246693
 
     99    -0.110E-01     0.4314566473       45.4524678327       1.61  <-- CONV
        O_D=      0.6110698 O_OD=      8.3435640 O_TOT=     45.4524678 <-- SPRD
 Delta: O_D=  0.7030758E-02 O_OD= -0.1799712E-01 O_TOT= -0.1096636E-01 <-- DLTA
 ------------------------------------------------------------------------------
 Cycle:    100
  WF centre and spread    1  (  0.482391,  7.078464, -0.007794 )     1.98218953
  WF centre and spread    2  (  0.000192, -0.423313,  1.965239 )     1.36059869
  WF centre and spread    3  ( -0.007638, 10.308024, -0.023286 )     1.41498919
  WF centre and spread    4  ( -0.553955,  2.917203,  2.264988 )     1.92502688
  WF centre and spread    5  (  0.038522,  2.946627,  1.315318 )     1.98677354
  WF centre and spread    6  (  0.003413,  9.467770,  0.644471 )     1.89215823
  WF centre and spread    7  ( -1.139898,  0.450749, -0.680885 )     1.86081759
  WF centre and spread    8  ( -0.016440,  0.432696,  1.340404 )     1.94003709
  WF centre and spread    9  (  0.551736,  9.443958, -0.298955 )     1.86943488
  WF centre and spread   10  ( -1.148999,  2.984042, -0.638365 )     1.98311332
  WF centre and spread   11  (  0.113523,  6.162493, -0.105254 )     1.59689773
  WF centre and spread   12  (  3.475106,  1.740480,  0.023430 )     2.37554007
  WF centre and spread   13  ( -0.538264,  9.432773, -0.297512 )     1.87489639
  WF centre and spread   14  ( -0.014971,  1.735985, -0.031433 )     2.14892524
  WF centre and spread   15  ( -0.552809,  6.967889, -0.346652 )     1.91210902
  WF centre and spread   16  ( -0.033350,  3.788433,  1.960502 )     1.51071199
  WF centre and spread   17  ( -0.007120,  8.157331,  1.957693 )     2.14108509
  WF centre and spread   18  ( -0.031401,  8.083511,  2.019429 )     3.73373851
  WF centre and spread   19  (  1.156762,  0.446536, -0.657528 )     1.86329425
  WF centre and spread   20  ( -0.057934,  1.731305,  0.006021 )     2.18784727
  WF centre and spread   21  ( -1.700063,  8.081807, -0.995361 )     3.56399432
  WF centre and spread   22  ( -0.061165,  6.746088,  0.445236 )     2.31241476
  Sum of centres and spreads ( -0.042359,108.680851,  9.859706 )    45.43659358
 
    100    -0.159E-01     0.4941998274       45.4365944803       1.62  <-- CONV
        O_D=      0.6118390 O_OD=      8.3269215 O_TOT=     45.4365945 <-- SPRD
 Delta: O_D=  0.7692094E-03 O_OD= -0.1664256E-01 O_TOT= -0.1587335E-01 <-- DLTA
 ------------------------------------------------------------------------------

 Writing checkpoint file wannier90.chk... done

 Final State
  WF centre and spread    1  (  0.482391,  7.078464, -0.007794 )     1.98218953
  WF centre and spread    2  (  0.000192, -0.423313,  1.965239 )     1.36059869
  WF centre and spread    3  ( -0.007638, 10.308024, -0.023286 )     1.41498919
  WF centre and spread    4  ( -0.553955,  2.917203,  2.264988 )     1.92502688
  WF centre and spread    5  (  0.038522,  2.946627,  1.315318 )     1.98677354
  WF centre and spread    6  (  0.003413,  9.467770,  0.644471 )     1.89215823
  WF centre and spread    7  ( -1.139898,  0.450749, -0.680885 )     1.86081759
  WF centre and spread    8  ( -0.016440,  0.432696,  1.340404 )     1.94003709
  WF centre and spread    9  (  0.551736,  9.443958, -0.298955 )     1.86943488
  WF centre and spread   10  ( -1.148999,  2.984042, -0.638365 )     1.98311332
  WF centre and spread   11  (  0.113523,  6.162493, -0.105254 )     1.59689773
  WF centre and spread   12  (  3.475106,  1.740480,  0.023430 )     2.37554007
  WF centre and spread   13  ( -0.538264,  9.432773, -0.297512 )     1.87489639
  WF centre and spread   14  ( -0.014971,  1.735985, -0.031433 )     2.14892524
  WF centre and spread   15  ( -0.552809,  6.967889, -0.346652 )     1.91210902
  WF centre and spread   16  ( -0.033350,  3.788433,  1.960502 )     1.51071199
  WF centre and spread   17  ( -0.007120,  8.157331,  1.957693 )     2.14108509
  WF centre and spread   18  ( -0.031401,  8.083511,  2.019429 )     3.73373851
  WF centre and spread   19  (  1.156762,  0.446536, -0.657528 )     1.86329425
  WF centre and spread   20  ( -0.057934,  1.731305,  0.006021 )     2.18784727
  WF centre and spread   21  ( -1.700063,  8.081807, -0.995361 )     3.56399432
  WF centre and spread   22  ( -0.061165,  6.746088,  0.445236 )     2.31241476
  Sum of centres and spreads ( -0.042359,108.680851,  9.859706 )    45.43659358
 
         Spreads (Ang^2)       Omega I      =    36.497834022
        ================       Omega D      =     0.611839000
                               Omega OD     =     8.326921458
    Final Spread (Ang^2)       Omega Total  =    45.436594480
 ------------------------------------------------------------------------------
 Time for wannierise            1.529 (sec)

 Writing checkpoint file wannier90.chk... done

 *---------------------------------------------------------------------------*
 |                               PLOTTING                                    |
 *---------------------------------------------------------------------------*
 
 Time for plotting              0.045 (sec)
 Total Execution Time           1.677 (sec)

 *===========================================================================*
 |                             TIMING INFORMATION                            |
 *===========================================================================*
 |    Tag                                                Ncalls      Time (s)|
 |---------------------------------------------------------------------------|
 |kmesh: get                                        :         1         0.020|
 |overlap: read                                     :         1         0.070|
 |wann: main                                        :         1         1.529|
 |plot: main                                        :         1         0.045|
 *---------------------------------------------------------------------------*
 
 All done: wannier90 exiting
