 written on 30Jun2015 at 14:44:57 
          22
          39
    2    1    1    2    1    1    1    1    1    1    1    1    1    1    1
    1    2    1    1    1    1    1    2    1    1    1    1    1    1    1
    1    1    1    1    1    2    1    1    2
   -3    0   -3    1    1   -0.009496   -0.000000
   -3    0   -3    2    1    0.000140    0.000507
   -3    0   -3    3    1    0.007935    0.001133
   -3    0   -3    4    1   -0.001735   -0.000176
   -3    0   -3    5    1    0.000135   -0.001102
   -3    0   -3    6    1    0.004126    0.001847
   -3    0   -3    7    1   -0.000310    0.000059
   -3    0   -3    8    1   -0.000766    0.001376
   -3    0   -3    9    1   -0.007050    0.002851
   -3    0   -3   10    1    0.001428    0.002293
   -3    0   -3   11    1    0.005784    0.004333
   -3    0   -3   12    1    0.000274   -0.000893
   -3    0   -3   13    1    0.005865   -0.007174
   -3    0   -3   14    1    0.001050   -0.002333
   -3    0   -3   15    1   -0.003146   -0.005400
   -3    0   -3   16    1    0.001233    0.000753
   -3    0   -3   17    1    0.003008    0.004359
   -3    0   -3   18    1    0.016476    0.003644
   -3    0   -3   19    1    0.001199    0.000828
   -3    0   -3   20    1    0.000023    0.000609
   -3    0   -3   21    1    0.001195    0.005177
   -3    0   -3   22    1   -0.003119   -0.000753
   -3    0   -3    1    2    0.000140   -0.000507
   -3    0   -3    2    2   -0.001147   -0.000000
   -3    0   -3    3    2   -0.000298   -0.000360
   -3    0   -3    4    2    0.000209   -0.000451
   -3    0   -3    5    2    0.000391   -0.001519
   -3    0   -3    6    2    0.000273    0.000557
   -3    0   -3    7    2   -0.008518   -0.001494
   -3    0   -3    8    2    0.000396   -0.000268
   -3    0   -3    9    2   -0.001321   -0.001049
   -3    0   -3   10    2   -0.001855   -0.003747
   -3    0   -3   11    2    0.000193   -0.000254
   -3    0   -3   12    2    0.000494    0.000252
   -3    0   -3   13    2    0.000563    0.001149
   -3    0   -3   14    2    0.001735   -0.002452
   -3    0   -3   15    2   -0.000571    0.001056
   -3    0   -3   16    2   -0.002663    0.000163
   -3    0   -3   17    2    0.000862   -0.000184
   -3    0   -3   18    2   -0.001325    0.001653
   -3    0   -3   19    2   -0.002127    0.000002
   -3    0   -3   20    2    0.000548    0.001609
   -3    0   -3   21    2   -0.001729    0.001420
   -3    0   -3   22    2    0.000566   -0.000986
   -3    0   -3    1    3    0.007935   -0.001133
   -3    0   -3    2    3   -0.000298    0.000360
   -3    0   -3    3    3   -0.009826    0.000000
   -3    0   -3    4    3    0.001728    0.001741
   -3    0   -3    5    3   -0.000514   -0.001091
   -3    0   -3    6    3   -0.004002    0.002875
   -3    0   -3    7    3    0.000313    0.000132
   -3    0   -3    8    3    0.001487   -0.000609
   -3    0   -3    9    3    0.004588   -0.002723
   -3    0   -3   10    3    0.001221   -0.000392
   -3    0   -3   11    3   -0.004656   -0.003452
   -3    0   -3   12    3    0.000227   -0.001330
   -3    0   -3   13    3   -0.005119    0.004223
   -3    0   -3   14    3    0.001081    0.000946
   -3    0   -3   15    3    0.003079    0.004758
   -3    0   -3   16    3   -0.000525   -0.000295
   -3    0   -3   17    3   -0.002622   -0.005893
   -3    0   -3   18    3   -0.011950    0.004075
   -3    0   -3   19    3   -0.000900   -0.001162
   -3    0   -3   20    3   -0.000387   -0.001405
   -3    0   -3   21    3    0.007831   -0.005911
   -3    0   -3   22    3    0.001286   -0.000313
   -3    0   -3    1    4   -0.001735    0.000176
   -3    0   -3    2    4    0.000209    0.000451
   -3    0   -3    3    4    0.001728   -0.001741
   -3    0   -3    4    4   -0.000188   -0.000000
   -3    0   -3    5    4    0.002325    0.000909
   -3    0   -3    6    4    0.002030    0.001121
   -3    0   -3    7    4    0.002457    0.001844
   -3    0   -3    8    4    0.000278    0.002926
   -3    0   -3    9    4    0.000043   -0.000756
   -3    0   -3   10    4   -0.003665   -0.003926
   -3    0   -3   11    4    0.000160    0.000213
   -3    0   -3   12    4    0.000747    0.001395
   -3    0   -3   13    4    0.000053   -0.000969
   -3    0   -3   14    4   -0.000226   -0.000945
   -3    0   -3   15    4    0.000562    0.000675
   -3    0   -3   16    4    0.000287    0.000360
   -3    0   -3   17    4   -0.000011    0.002101
   -3    0   -3   18    4   -0.006653   -0.003645
   -3    0   -3   19    4   -0.002220    0.000129
   -3    0   -3   20    4   -0.000111    0.000403
   -3    0   -3   21    4   -0.005628    0.002341
   -3    0   -3   22    4    0.002459    0.002215
   -3    0   -3    1    5    0.000135    0.001102
   -3    0   -3    2    5    0.000391    0.001519
   -3    0   -3    3    5   -0.000514    0.001091
   -3    0   -3    4    5    0.002325   -0.000909
   -3    0   -3    5    5    0.007919   -0.000000
   -3    0   -3    6    5    0.000982   -0.001290
   -3    0   -3    7    5   -0.002012   -0.003312
   -3    0   -3    8    5    0.004263   -0.005006
   -3    0   -3    9    5   -0.000025    0.001527
   -3    0   -3   10    5   -0.008091    0.019180
   -3    0   -3   11    5   -0.001125    0.000141
   -3    0   -3   12    5    0.003203   -0.003801
   -3    0   -3   13    5    0.001332   -0.000318
   -3    0   -3   14    5    0.003374   -0.001197
   -3    0   -3   15    5    0.001068   -0.001633
   -3    0   -3   16    5    0.000474   -0.000743
   -3    0   -3   17    5    0.000047    0.000884
   -3    0   -3   18    5    0.000210    0.008691
   -3    0   -3   19    5    0.000021    0.003690
   -3    0   -3   20    5   -0.001423    0.002114
   -3    0   -3   21    5   -0.009123    0.004519
   -3    0   -3   22    5    0.001835   -0.001066
   -3    0   -3    1    6    0.004126   -0.001847
   -3    0   -3    2    6    0.000273   -0.000557
   -3    0   -3    3    6   -0.004002   -0.002875
   -3    0   -3    4    6    0.002030   -0.001121
   -3    0   -3    5    6    0.000982    0.001290
   -3    0   -3    6    6   -0.006536    0.000000
   -3    0   -3    7    6   -0.000169   -0.000257
   -3    0   -3    8    6    0.002214    0.000046
   -3    0   -3    9    6    0.001038   -0.001819
   -3    0   -3   10    6   -0.000963   -0.001317
   -3    0   -3   11    6    0.000752   -0.003587
   -3    0   -3   12    6    0.003024   -0.001115
   -3    0   -3   13    6   -0.002409   -0.000247
   -3    0   -3   14    6    0.002184    0.000166
   -3    0   -3   15    6   -0.003693    0.005018
   -3    0   -3   16    6    0.001919    0.000751
   -3    0   -3   17    6    0.002805   -0.005465
   -3    0   -3   18    6   -0.012112   -0.001217
   -3    0   -3   19    6   -0.000480   -0.000926
   -3    0   -3   20    6   -0.001414   -0.000971
   -3    0   -3   21    6    0.007451   -0.003031
   -3    0   -3   22    6    0.002028    0.003918
   -3    0   -3    1    7   -0.000310   -0.000059
   -3    0   -3    2    7   -0.008518    0.001494
   -3    0   -3    3    7    0.000313   -0.000132
   -3    0   -3    4    7    0.002457   -0.001844
   -3    0   -3    5    7   -0.002012    0.003312
   -3    0   -3    6    7   -0.000169    0.000257
   -3    0   -3    7    7    0.000347   -0.000000
   -3    0   -3    8    7    0.012557    0.013306
   -3    0   -3    9    7    0.000281    0.000364
   -3    0   -3   10    7   -0.004585   -0.004948
   -3    0   -3   11    7    0.000391   -0.000549
   -3    0   -3   12    7    0.001440   -0.005628
   -3    0   -3   13    7   -0.000154   -0.000117
   -3    0   -3   14    7    0.004249   -0.001359
   -3    0   -3   15    7   -0.000106    0.001982
   -3    0   -3   16    7   -0.004023    0.000893
   -3    0   -3   17    7   -0.001138   -0.000824
   -3    0   -3   18    7   -0.006369    0.000473
   -3    0   -3   19    7   -0.001735   -0.002727
   -3    0   -3   20    7   -0.001458   -0.000409
   -3    0   -3   21    7   -0.002662    0.000302
   -3    0   -3   22    7    0.001999    0.000033
   -3    0   -3    1    8   -0.000766   -0.001376
   -3    0   -3    2    8    0.000396    0.000268
   -3    0   -3    3    8    0.001487    0.000609
   -3    0   -3    4    8    0.000278   -0.002926
   -3    0   -3    5    8    0.004263    0.005006
   -3    0   -3    6    8    0.002214   -0.000046
   -3    0   -3    7    8    0.012557   -0.013306
   -3    0   -3    8    8    0.000978    0.000000
   -3    0   -3    9    8   -0.000851   -0.000480
   -3    0   -3   10    8   -0.003707    0.001871
   -3    0   -3   11    8   -0.000203    0.000174
   -3    0   -3   12    8   -0.007123   -0.001332
   -3    0   -3   13    8   -0.000849   -0.001109
   -3    0   -3   14    8    0.003189    0.003974
   -3    0   -3   15    8   -0.000254    0.000844
   -3    0   -3   16    8    0.000178   -0.001689
   -3    0   -3   17    8    0.000185    0.002231
   -3    0   -3   18    8   -0.001021    0.007248
   -3    0   -3   19    8   -0.002981   -0.001040
   -3    0   -3   20    8   -0.003178    0.002790
   -3    0   -3   21    8   -0.004861    0.002128
   -3    0   -3   22    8    0.001809    0.000961
   -3    0   -3    1    9   -0.007050   -0.002851
   -3    0   -3    2    9   -0.001321    0.001049
   -3    0   -3    3    9    0.004588    0.002723
   -3    0   -3    4    9    0.000043    0.000756
   -3    0   -3    5    9   -0.000025   -0.001527
   -3    0   -3    6    9    0.001038    0.001819
   -3    0   -3    7    9    0.000281   -0.000364
   -3    0   -3    8    9   -0.000851    0.000480
   -3    0   -3    9    9   -0.004485   -0.000000
   -3    0   -3   10    9   -0.000520    0.000568
   -3    0   -3   11    9    0.003668    0.003794
   -3    0   -3   12    9    0.001919    0.000052
   -3    0   -3   13    9    0.007538   -0.002504
   -3    0   -3   14    9    0.001505   -0.000921
   -3    0   -3   15    9    0.000669   -0.005790
   -3    0   -3   16    9   -0.001607    0.000908
   -3    0   -3   17    9    0.000118    0.003076
   -3    0   -3   18    9    0.013244   -0.003238
   -3    0   -3   19    9   -0.003014    0.000441
   -3    0   -3   20    9    0.000395    0.000166
   -3    0   -3   21    9   -0.007134    0.005632
   -3    0   -3   22    9    0.002491   -0.000694
   -3    0   -3    1   10    0.001428   -0.002293
   -3    0   -3    2   10   -0.001855    0.003747
   -3    0   -3    3   10    0.001221    0.000392
   -3    0   -3    4   10   -0.003665    0.003926
   -3    0   -3    5   10   -0.008091   -0.019180
   -3    0   -3    6   10   -0.000963    0.001317
   -3    0   -3    7   10   -0.004585    0.004948
   -3    0   -3    8   10   -0.003707   -0.001871
   -3    0   -3    9   10   -0.000520   -0.000568
   -3    0   -3   10   10    0.008269    0.000000
   -3    0   -3   11   10    0.001959    0.001067
   -3    0   -3   12   10    0.002828   -0.003891
   -3    0   -3   13   10   -0.000819   -0.000949
   -3    0   -3   14   10   -0.000501    0.001425
   -3    0   -3   15   10   -0.003626   -0.002141
   -3    0   -3   16   10   -0.003265    0.006843
   -3    0   -3   17   10    0.000068   -0.000428
   -3    0   -3   18   10    0.006340   -0.001266
   -3    0   -3   19   10    0.000360   -0.001773
   -3    0   -3   20   10   -0.003648    0.002284
   -3    0   -3   21   10    0.005723   -0.001292
   -3    0   -3   22   10   -0.001198   -0.001057
   -3    0   -3    1   11    0.005784   -0.004333
   -3    0   -3    2   11    0.000193    0.000254
   -3    0   -3    3   11   -0.004656    0.003452
   -3    0   -3    4   11    0.000160   -0.000213
   -3    0   -3    5   11   -0.001125   -0.000141
   -3    0   -3    6   11    0.000752    0.003587
   -3    0   -3    7   11    0.000391    0.000549
   -3    0   -3    8   11   -0.000203   -0.000174
   -3    0   -3    9   11    0.003668   -0.003794
   -3    0   -3   10   11    0.001959   -0.001067
   -3    0   -3   11   11   -0.010528   -0.000000
   -3    0   -3   12   11   -0.002230    0.001414
   -3    0   -3   13   11   -0.002196    0.005771
   -3    0   -3   14   11   -0.000101   -0.000226
   -3    0   -3   15   11    0.005348    0.005761
   -3    0   -3   16   11   -0.000232    0.001474
   -3    0   -3   17   11   -0.004901   -0.002506
   -3    0   -3   18   11   -0.005233    0.013354
   -3    0   -3   19   11   -0.001228   -0.000155
   -3    0   -3   20   11    0.000036   -0.000392
   -3    0   -3   21   11   -0.001355   -0.007950
   -3    0   -3   22   11    0.000538    0.000960
   -3    0   -3    1   12    0.000274    0.000893
   -3    0   -3    2   12    0.000494   -0.000252
   -3    0   -3    3   12    0.000227    0.001330
   -3    0   -3    4   12    0.000747   -0.001395
   -3    0   -3    5   12    0.003203    0.003801
   -3    0   -3    6   12    0.003024    0.001115
   -3    0   -3    7   12    0.001440    0.005628
   -3    0   -3    8   12   -0.007123    0.001332
   -3    0   -3    9   12    0.001919   -0.000052
   -3    0   -3   10   12    0.002828    0.003891
   -3    0   -3   11   12   -0.002230   -0.001414
   -3    0   -3   12   12   -0.000329    0.000000
   -3    0   -3   13   12   -0.000176   -0.001919
   -3    0   -3   14   12   -0.002594   -0.000811
   -3    0   -3   15   12    0.000833   -0.001927
   -3    0   -3   16   12   -0.001171   -0.000466
   -3    0   -3   17   12    0.000107    0.000828
   -3    0   -3   18   12    0.001775   -0.000476
   -3    0   -3   19   12   -0.002149    0.001968
   -3    0   -3   20   12    0.001271    0.000489
   -3    0   -3   21   12   -0.002125    0.001973
   -3    0   -3   22   12   -0.001243   -0.000161
   -3    0   -3    1   13    0.005865    0.007174
   -3    0   -3    2   13    0.000563   -0.001149
   -3    0   -3    3   13   -0.005119   -0.004223
   -3    0   -3    4   13    0.000053    0.000969
   -3    0   -3    5   13    0.001332    0.000318
   -3    0   -3    6   13   -0.002409    0.000247
   -3    0   -3    7   13   -0.000154    0.000117
   -3    0   -3    8   13   -0.000849    0.001109
   -3    0   -3    9   13    0.007538    0.002504
   -3    0   -3   10   13   -0.000819    0.000949
   -3    0   -3   11   13   -0.002196   -0.005771
   -3    0   -3   12   13   -0.000176    0.001919
   -3    0   -3   13   13   -0.001172   -0.000000
   -3    0   -3   14   13    0.000207    0.000612
   -3    0   -3   15   13    0.002553   -0.000049
   -3    0   -3   16   13   -0.003619    0.000011
   -3    0   -3   17   13   -0.001750   -0.003581
   -3    0   -3   18   13   -0.013584   -0.014859
   -3    0   -3   19   13   -0.001614    0.002118
   -3    0   -3   20   13    0.001781   -0.000764
   -3    0   -3   21   13    0.005795    0.004768
   -3    0   -3   22   13    0.001998   -0.005723
   -3    0   -3    1   14    0.001050    0.002333
   -3    0   -3    2   14    0.001735    0.002452
   -3    0   -3    3   14    0.001081   -0.000946
   -3    0   -3    4   14   -0.000226    0.000945
   -3    0   -3    5   14    0.003374    0.001197
   -3    0   -3    6   14    0.002184   -0.000166
   -3    0   -3    7   14    0.004249    0.001359
   -3    0   -3    8   14    0.003189   -0.003974
   -3    0   -3    9   14    0.001505    0.000921
   -3    0   -3   10   14   -0.000501   -0.001425
   -3    0   -3   11   14   -0.000101    0.000226
   -3    0   -3   12   14   -0.002594    0.000811
   -3    0   -3   13   14    0.000207   -0.000612
   -3    0   -3   14   14   -0.005690   -0.000000
   -3    0   -3   15   14    0.000446   -0.001082
   -3    0   -3   16   14   -0.001104   -0.003315
   -3    0   -3   17   14   -0.001540   -0.000212
   -3    0   -3   18   14   -0.000959    0.000451
   -3    0   -3   19   14   -0.002542    0.001328
   -3    0   -3   20   14    0.000927   -0.003182
   -3    0   -3   21   14   -0.000481   -0.000627
   -3    0   -3   22   14   -0.000280    0.000660
   -3    0   -3    1   15   -0.003146    0.005400
   -3    0   -3    2   15   -0.000571   -0.001056
   -3    0   -3    3   15    0.003079   -0.004758
   -3    0   -3    4   15    0.000562   -0.000675
   -3    0   -3    5   15    0.001068    0.001633
   -3    0   -3    6   15   -0.003693   -0.005018
   -3    0   -3    7   15   -0.000106   -0.001982
   -3    0   -3    8   15   -0.000254   -0.000844
   -3    0   -3    9   15    0.000669    0.005790
   -3    0   -3   10   15   -0.003626    0.002141
   -3    0   -3   11   15    0.005348   -0.005761
   -3    0   -3   12   15    0.000833    0.001927
   -3    0   -3   13   15    0.002553    0.000049
   -3    0   -3   14   15    0.000446    0.001082
   -3    0   -3   15   15   -0.001991    0.000000
   -3    0   -3   16   15   -0.000302   -0.001097
   -3    0   -3   17   15    0.003824    0.000071
   -3    0   -3   18   15    0.002506   -0.013139
   -3    0   -3   19   15   -0.000028    0.000897
   -3    0   -3   20   15    0.000068   -0.000151
   -3    0   -3   21   15   -0.004161    0.011590
   -3    0   -3   22   15    0.007275   -0.001054
   -3    0   -3    1   16    0.001233   -0.000753
   -3    0   -3    2   16   -0.002663   -0.000163
   -3    0   -3    3   16   -0.000525    0.000295
   -3    0   -3    4   16    0.000287   -0.000360
   -3    0   -3    5   16    0.000474    0.000743
   -3    0   -3    6   16    0.001919   -0.000751
   -3    0   -3    7   16   -0.004023   -0.000893
   -3    0   -3    8   16    0.000178    0.001689
   -3    0   -3    9   16   -0.001607   -0.000908
   -3    0   -3   10   16   -0.003265   -0.006843
   -3    0   -3   11   16   -0.000232   -0.001474
   -3    0   -3   12   16   -0.001171    0.000466
   -3    0   -3   13   16   -0.003619   -0.000011
   -3    0   -3   14   16   -0.001104    0.003315
   -3    0   -3   15   16   -0.000302    0.001097
   -3    0   -3   16   16   -0.002235   -0.000000
   -3    0   -3   17   16   -0.000769    0.000528
   -3    0   -3   18   16   -0.002188    0.000206
   -3    0   -3   19   16    0.000012   -0.000775
   -3    0   -3   20   16   -0.000336   -0.003503
   -3    0   -3   21   16    0.004640   -0.002777
   -3    0   -3   22   16    0.001551    0.001665
   -3    0   -3    1   17    0.003008   -0.004359
   -3    0   -3    2   17    0.000862    0.000184
   -3    0   -3    3   17   -0.002622    0.005893
   -3    0   -3    4   17   -0.000011   -0.002101
   -3    0   -3    5   17    0.000047   -0.000884
   -3    0   -3    6   17    0.002805    0.005465
   -3    0   -3    7   17   -0.001138    0.000824
   -3    0   -3    8   17    0.000185   -0.002231
   -3    0   -3    9   17    0.000118   -0.003076
   -3    0   -3   10   17    0.000068    0.000428
   -3    0   -3   11   17   -0.004901    0.002506
   -3    0   -3   12   17    0.000107   -0.000828
   -3    0   -3   13   17   -0.001750    0.003581
   -3    0   -3   14   17   -0.001540    0.000212
   -3    0   -3   15   17    0.003824   -0.000071
   -3    0   -3   16   17   -0.000769   -0.000528
   -3    0   -3   17   17   -0.005299    0.000000
   -3    0   -3   18   17   -0.002116    0.000915
   -3    0   -3   19   17   -0.000649    0.000143
   -3    0   -3   20   17    0.000341   -0.001101
   -3    0   -3   21   17   -0.009503    0.000568
   -3    0   -3   22   17   -0.000338   -0.000711
   -3    0   -3    1   18    0.016476   -0.003644
   -3    0   -3    2   18   -0.001325   -0.001653
   -3    0   -3    3   18   -0.011950   -0.004075
   -3    0   -3    4   18   -0.006653    0.003645
   -3    0   -3    5   18    0.000210   -0.008691
   -3    0   -3    6   18   -0.012112    0.001217
   -3    0   -3    7   18   -0.006369   -0.000473
   -3    0   -3    8   18   -0.001021   -0.007248
   -3    0   -3    9   18    0.013244    0.003238
   -3    0   -3   10   18    0.006340    0.001266
   -3    0   -3   11   18   -0.005233   -0.013354
   -3    0   -3   12   18    0.001775    0.000476
   -3    0   -3   13   18   -0.013584    0.014859
   -3    0   -3   14   18   -0.000959   -0.000451
   -3    0   -3   15   18    0.002506    0.013139
   -3    0   -3   16   18   -0.002188   -0.000206
   -3    0   -3   17   18   -0.002116   -0.000915
   -3    0   -3   18   18    0.016959    0.000000
   -3    0   -3   19   18   -0.001943   -0.003900
   -3    0   -3   20   18   -0.000530   -0.000901
   -3    0   -3   21   18   -0.010338   -0.006582
   -3    0   -3   22   18    0.009263   -0.005438
   -3    0   -3    1   19    0.001199   -0.000828
   -3    0   -3    2   19   -0.002127   -0.000002
   -3    0   -3    3   19   -0.000900    0.001162
   -3    0   -3    4   19   -0.002220   -0.000129
   -3    0   -3    5   19    0.000021   -0.003690
   -3    0   -3    6   19   -0.000480    0.000926
   -3    0   -3    7   19   -0.001735    0.002727
   -3    0   -3    8   19   -0.002981    0.001040
   -3    0   -3    9   19   -0.003014   -0.000441
   -3    0   -3   10   19    0.000360    0.001773
   -3    0   -3   11   19   -0.001228    0.000155
   -3    0   -3   12   19   -0.002149   -0.001968
   -3    0   -3   13   19   -0.001614   -0.002118
   -3    0   -3   14   19   -0.002542   -0.001328
   -3    0   -3   15   19   -0.000028   -0.000897
   -3    0   -3   16   19    0.000012    0.000775
   -3    0   -3   17   19   -0.000649   -0.000143
   -3    0   -3   18   19   -0.001943    0.003900
   -3    0   -3   19   19   -0.000950    0.000000
   -3    0   -3   20   19    0.001376    0.001540
   -3    0   -3   21   19    0.001698   -0.004402
   -3    0   -3   22   19   -0.001543   -0.001034
   -3    0   -3    1   20    0.000023   -0.000609
   -3    0   -3    2   20    0.000548   -0.001609
   -3    0   -3    3   20   -0.000387    0.001405
   -3    0   -3    4   20   -0.000111   -0.000403
   -3    0   -3    5   20   -0.001423   -0.002114
   -3    0   -3    6   20   -0.001414    0.000971
   -3    0   -3    7   20   -0.001458    0.000409
   -3    0   -3    8   20   -0.003178   -0.002790
   -3    0   -3    9   20    0.000395   -0.000166
   -3    0   -3   10   20   -0.003648   -0.002284
   -3    0   -3   11   20    0.000036    0.000392
   -3    0   -3   12   20    0.001271   -0.000489
   -3    0   -3   13   20    0.001781    0.000764
   -3    0   -3   14   20    0.000927    0.003182
   -3    0   -3   15   20    0.000068    0.000151
   -3    0   -3   16   20   -0.000336    0.003503
   -3    0   -3   17   20    0.000341    0.001101
   -3    0   -3   18   20   -0.000530    0.000901
   -3    0   -3   19   20    0.001376   -0.001540
   -3    0   -3   20   20   -0.003020    0.000000
   -3    0   -3   21   20    0.001698   -0.000605
   -3    0   -3   22   20   -0.000091    0.000666
   -3    0   -3    1   21    0.001195   -0.005177
   -3    0   -3    2   21   -0.001729   -0.001420
   -3    0   -3    3   21    0.007831    0.005911
   -3    0   -3    4   21   -0.005628   -0.002341
   -3    0   -3    5   21   -0.009123   -0.004519
   -3    0   -3    6   21    0.007451    0.003031
   -3    0   -3    7   21   -0.002662   -0.000302
   -3    0   -3    8   21   -0.004861   -0.002128
   -3    0   -3    9   21   -0.007134   -0.005632
   -3    0   -3   10   21    0.005723    0.001292
   -3    0   -3   11   21   -0.001355    0.007950
   -3    0   -3   12   21   -0.002125   -0.001973
   -3    0   -3   13   21    0.005795   -0.004768
   -3    0   -3   14   21   -0.000481    0.000627
   -3    0   -3   15   21   -0.004161   -0.011590
   -3    0   -3   16   21    0.004640    0.002777
   -3    0   -3   17   21   -0.009503   -0.000568
   -3    0   -3   18   21   -0.010338    0.006582
   -3    0   -3   19   21    0.001698    0.004402
   -3    0   -3   20   21    0.001698    0.000605
   -3    0   -3   21   21    0.005752   -0.000000
   -3    0   -3   22   21   -0.008559   -0.002386
   -3    0   -3    1   22   -0.003119    0.000753
   -3    0   -3    2   22    0.000566    0.000986
   -3    0   -3    3   22    0.001286    0.000313
   -3    0   -3    4   22    0.002459   -0.002215
   -3    0   -3    5   22    0.001835    0.001066
   -3    0   -3    6   22    0.002028   -0.003918
   -3    0   -3    7   22    0.001999   -0.000033
   -3    0   -3    8   22    0.001809   -0.000961
   -3    0   -3    9   22    0.002491    0.000694
   -3    0   -3   10   22   -0.001198    0.001057
   -3    0   -3   11   22    0.000538   -0.000960
   -3    0   -3   12   22   -0.001243    0.000161
   -3    0   -3   13   22    0.001998    0.005723
   -3    0   -3   14   22   -0.000280   -0.000660
   -3    0   -3   15   22    0.007275    0.001054
   -3    0   -3   16   22    0.001551   -0.001665
   -3    0   -3   17   22   -0.000338    0.000711
   -3    0   -3   18   22    0.009263    0.005438
   -3    0   -3   19   22   -0.001543    0.001034
   -3    0   -3   20   22   -0.000091   -0.000666
   -3    0   -3   21   22   -0.008559    0.002386
   -3    0   -3   22   22    0.013524   -0.000000
   -3    0   -2    1    1   -0.000958   -0.001377
   -3    0   -2    2    1   -0.000451   -0.000215
   -3    0   -2    3    1   -0.005498    0.000295
   -3    0   -2    4    1    0.001724    0.001329
   -3    0   -2    5    1   -0.000560   -0.000229
   -3    0   -2    6    1    0.000107    0.005845
   -3    0   -2    7    1   -0.000262    0.001204
   -3    0   -2    8    1   -0.000701    0.001743
   -3    0   -2    9    1    0.001913   -0.000412
   -3    0   -2   10    1    0.002768    0.000005
   -3    0   -2   11    1   -0.002907   -0.001635
   -3    0   -2   12    1   -0.001047   -0.001411
   -3    0   -2   13    1   -0.003556   -0.001047
   -3    0   -2   14    1    0.000842   -0.002959
   -3    0   -2   15    1    0.000144    0.007226
   -3    0   -2   16    1    0.000412    0.000891
   -3    0   -2   17    1    0.001731   -0.001098
   -3    0   -2   18    1   -0.003855    0.014465
   -3    0   -2   19    1   -0.000276   -0.000499
   -3    0   -2   20    1    0.000993    0.000613
   -3    0   -2   21    1    0.006572    0.006051
   -3    0   -2   22    1   -0.000759    0.000010
   -3    0   -2    1    2    0.002184    0.000875
   -3    0   -2    2    2   -0.001634   -0.000049
   -3    0   -2    3    2   -0.001715   -0.000664
   -3    0   -2    4    2    0.000351   -0.000203
   -3    0   -2    5    2   -0.000511    0.000785
   -3    0   -2    6    2    0.001561   -0.000259
   -3    0   -2    7    2   -0.001301    0.000730
   -3    0   -2    8    2    0.000304    0.000235
   -3    0   -2    9    2   -0.000820   -0.000629
   -3    0   -2   10    2    0.006781    0.007185
   -3    0   -2   11    2   -0.000167   -0.000923
   -3    0   -2   12    2    0.000479   -0.000123
   -3    0   -2   13    2    0.000157    0.000061
   -3    0   -2   14    2    0.003693   -0.000461
   -3    0   -2   15    2   -0.000877    0.000424
   -3    0   -2   16    2   -0.000012    0.000099
   -3    0   -2   17    2   -0.000256   -0.000023
   -3    0   -2   18    2   -0.000912   -0.001527
   -3    0   -2   19    2   -0.000346    0.000217
   -3    0   -2   20    2    0.002685   -0.001131
   -3    0   -2   21    2    0.000494   -0.000198
   -3    0   -2   22    2   -0.000142    0.000559
   -3    0   -2    1    3   -0.002531    0.000364
   -3    0   -2    2    3   -0.000257   -0.000235
   -3    0   -2    3    3    0.002490    0.000397
   -3    0   -2    4    3   -0.000532   -0.000669
   -3    0   -2    5    3    0.000152   -0.001653
   -3    0   -2    6    3    0.000341    0.000705
   -3    0   -2    7    3    0.000354    0.000079
   -3    0   -2    8    3    0.000817    0.001350
   -3    0   -2    9    3   -0.002984    0.001719
   -3    0   -2   10    3   -0.001190   -0.000065
   -3    0   -2   11    3    0.003195    0.001978
   -3    0   -2   12    3    0.001217   -0.000181
   -3    0   -2   13    3    0.002256   -0.002562
   -3    0   -2   14    3    0.000836    0.001507
   -3    0   -2   15    3   -0.000828   -0.001093
   -3    0   -2   16    3   -0.000377   -0.000416
   -3    0   -2   17    3   -0.003044    0.001664
   -3    0   -2   18    3   -0.002584   -0.007352
   -3    0   -2   19    3   -0.001871   -0.001581
   -3    0   -2   20    3   -0.000675   -0.000020
   -3    0   -2   21    3   -0.008700   -0.015643
   -3    0   -2   22    3    0.000805    0.001401
   -3    0   -2    1    4   -0.001609    0.000298
   -3    0   -2    2    4   -0.001555   -0.000015
   -3    0   -2    3    4    0.000667   -0.001793
   -3    0   -2    4    4   -0.000605    0.000106
   -3    0   -2    5    4    0.001559    0.001522
   -3    0   -2    6    4    0.000728    0.001834
   -3    0   -2    7    4   -0.001589    0.000084
   -3    0   -2    8    4   -0.000369    0.001756
   -3    0   -2    9    4    0.001585   -0.000752
   -3    0   -2   10    4   -0.000978    0.002702
   -3    0   -2   11    4   -0.001504   -0.001166
   -3    0   -2   12    4    0.001054    0.002156
   -3    0   -2   13    4    0.001756   -0.001526
   -3    0   -2   14    4    0.000213   -0.000729
   -3    0   -2   15    4   -0.000033   -0.000734
   -3    0   -2   16    4   -0.000022    0.000523
   -3    0   -2   17    4    0.003772   -0.001012
   -3    0   -2   18    4    0.010244   -0.005448
   -3    0   -2   19    4   -0.000270   -0.000553
   -3    0   -2   20    4    0.003077   -0.001736
   -3    0   -2   21    4    0.008460    0.006981
   -3    0   -2   22    4    0.001839   -0.000515
   -3    0   -2    1    5    0.002089    0.001718
   -3    0   -2    2    5    0.000312    0.001248
   -3    0   -2    3    5   -0.001185    0.000013
   -3    0   -2    4    5    0.002409   -0.003635
   -3    0   -2    5    5    0.001861    0.000012
   -3    0   -2    6    5   -0.000711   -0.000892
   -3    0   -2    7    5   -0.002491   -0.001942
   -3    0   -2    8    5   -0.002519   -0.001153
   -3    0   -2    9    5    0.000030    0.000122
   -3    0   -2   10    5    0.005261    0.005710
   -3    0   -2   11    5   -0.001223   -0.000465
   -3    0   -2   12    5    0.002713   -0.002814
   -3    0   -2   13    5    0.000377   -0.000750
   -3    0   -2   14    5    0.000851   -0.000569
   -3    0   -2   15    5   -0.001732    0.000154
   -3    0   -2   16    5    0.001514    0.000940
   -3    0   -2   17    5   -0.000342   -0.001667
   -3    0   -2   18    5   -0.009163   -0.004425
   -3    0   -2   19    5   -0.001506    0.002558
   -3    0   -2   20    5    0.000224    0.001445
   -3    0   -2   21    5    0.006374    0.002271
   -3    0   -2   22    5   -0.000560    0.000482
   -3    0   -2    1    6    0.000381   -0.003668
   -3    0   -2    2    6    0.000339    0.000036
   -3    0   -2    3    6    0.001015    0.001291
   -3    0   -2    4    6    0.001790   -0.001968
   -3    0   -2    5    6    0.000439    0.001025
   -3    0   -2    6    6   -0.005746   -0.001463
   -3    0   -2    7    6    0.000456   -0.001060
   -3    0   -2    8    6    0.002277   -0.001462
   -3    0   -2    9    6   -0.002378   -0.002220
   -3    0   -2   10    6   -0.002135   -0.001894
   -3    0   -2   11    6    0.001278   -0.000364
   -3    0   -2   12    6    0.003068   -0.000833
   -3    0   -2   13    6    0.006453    0.002681
   -3    0   -2   14    6    0.001424   -0.000171
   -3    0   -2   15    6   -0.000859   -0.001238
   -3    0   -2   16    6    0.000875   -0.000202
   -3    0   -2   17    6   -0.000986   -0.002401
   -3    0   -2   18    6   -0.002700   -0.008470
   -3    0   -2   19    6   -0.000296    0.000067
   -3    0   -2   20    6   -0.001625   -0.000461
   -3    0   -2   21    6    0.003272   -0.012664
   -3    0   -2   22    6    0.001877   -0.000846
   -3    0   -2    1    7    0.000199   -0.001009
   -3    0   -2    2    7   -0.002550    0.000702
   -3    0   -2    3    7   -0.002192   -0.000007
   -3    0   -2    4    7    0.006020   -0.002203
   -3    0   -2    5    7   -0.000794    0.001020
   -3    0   -2    6    7    0.000824   -0.002591
   -3    0   -2    7    7   -0.001619    0.001278
   -3    0   -2    8    7    0.001455   -0.003660
   -3    0   -2    9    7   -0.000418    0.001106
   -3    0   -2   10    7    0.000513   -0.001330
   -3    0   -2   11    7    0.001557   -0.000816
   -3    0   -2   12    7    0.000235   -0.002928
   -3    0   -2   13    7    0.002437   -0.000772
   -3    0   -2   14    7    0.001697    0.001309
   -3    0   -2   15    7   -0.000803   -0.000314
   -3    0   -2   16    7   -0.000377   -0.000269
   -3    0   -2   17    7    0.000976   -0.000296
   -3    0   -2   18    7    0.002597   -0.002649
   -3    0   -2   19    7   -0.000129   -0.003570
   -3    0   -2   20    7   -0.005318   -0.001315
   -3    0   -2   21    7    0.004152    0.004007
   -3    0   -2   22    7    0.000734   -0.001176
   -3    0   -2    1    8   -0.001046    0.000750
   -3    0   -2    2    8    0.001112   -0.001366
   -3    0   -2    3    8    0.001007   -0.000533
   -3    0   -2    4    8   -0.001031   -0.001542
   -3    0   -2    5    8   -0.001800    0.001269
   -3    0   -2    6    8    0.000904    0.000148
   -3    0   -2    7    8    0.003485   -0.001374
   -3    0   -2    8    8   -0.002959    0.000734
   -3    0   -2    9    8   -0.000580   -0.000980
   -3    0   -2   10    8   -0.002750    0.000625
   -3    0   -2   11    8    0.000579   -0.001764
   -3    0   -2   12    8   -0.005317   -0.001425
   -3    0   -2   13    8   -0.001958   -0.000546
   -3    0   -2   14    8   -0.000424    0.001826
   -3    0   -2   15    8   -0.001357    0.001058
   -3    0   -2   16    8   -0.000054   -0.001279
   -3    0   -2   17    8    0.000882    0.000028
   -3    0   -2   18    8   -0.003102    0.000012
   -3    0   -2   19    8   -0.003270   -0.001418
   -3    0   -2   20    8    0.000117    0.004047
   -3    0   -2   21    8    0.003966    0.004193
   -3    0   -2   22    8    0.000248    0.000545
   -3    0   -2    1    9    0.002234   -0.000416
   -3    0   -2    2    9   -0.001383   -0.000738
   -3    0   -2    3    9   -0.001238   -0.000076
   -3    0   -2    4    9   -0.000506    0.000394
   -3    0   -2    5    9    0.000770   -0.000087
   -3    0   -2    6    9   -0.003399    0.001761
   -3    0   -2    7    9    0.001153   -0.000447
   -3    0   -2    8    9    0.000343    0.000547
   -3    0   -2    9    9    0.003295   -0.000896
   -3    0   -2   10    9   -0.001190    0.000152
   -3    0   -2   11    9   -0.003210   -0.005284
   -3    0   -2   12    9   -0.000028    0.000018
   -3    0   -2   13    9    0.003566    0.000358
   -3    0   -2   14    9    0.001647   -0.001251
   -3    0   -2   15    9    0.002588    0.001600
   -3    0   -2   16    9   -0.002031    0.000079
   -3    0   -2   17    9    0.002537   -0.001496
   -3    0   -2   18    9   -0.005348    0.008596
   -3    0   -2   19    9    0.000723   -0.000179
   -3    0   -2   20    9   -0.000597    0.001416
   -3    0   -2   21    9    0.003398    0.011734
   -3    0   -2   22    9    0.003043   -0.003289
   -3    0   -2    1   10   -0.000096   -0.001310
   -3    0   -2    2   10   -0.000785    0.000725
   -3    0   -2    3   10    0.000624    0.000252
   -3    0   -2    4   10   -0.002072   -0.001388
   -3    0   -2    5   10    0.002103   -0.004837
   -3    0   -2    6   10   -0.000431    0.000744
   -3    0   -2    7   10   -0.000518    0.001916
   -3    0   -2    8   10    0.002326    0.000035
   -3    0   -2    9   10   -0.000396   -0.002131
   -3    0   -2   10   10    0.006410   -0.001800
   -3    0   -2   11   10   -0.000439    0.001022
   -3    0   -2   12   10    0.000021   -0.003653
   -3    0   -2   13   10   -0.000649   -0.001234
   -3    0   -2   14   10    0.001429   -0.001530
   -3    0   -2   15   10   -0.001124   -0.000004
   -3    0   -2   16   10   -0.000284    0.001369
   -3    0   -2   17   10   -0.000225    0.001433
   -3    0   -2   18   10   -0.004489    0.007048
   -3    0   -2   19   10    0.001158   -0.003322
   -3    0   -2   20   10   -0.003577    0.000391
   -3    0   -2   21   10   -0.007101   -0.000569
   -3    0   -2   22   10    0.000519   -0.000635
   -3    0   -2    1   11   -0.002846    0.002318
   -3    0   -2    2   11    0.000315   -0.000779
   -3    0   -2    3   11    0.002870   -0.002050
   -3    0   -2    4   11   -0.001434   -0.000729
   -3    0   -2    5   11   -0.001514   -0.000010
   -3    0   -2    6   11    0.001354   -0.001905
   -3    0   -2    7   11   -0.001101   -0.000355
   -3    0   -2    8   11   -0.000106    0.000917
   -3    0   -2    9   11   -0.001259    0.003502
   -3    0   -2   10   11    0.003882   -0.000138
   -3    0   -2   11   11    0.003439   -0.000721
   -3    0   -2   12   11   -0.001100   -0.000522
   -3    0   -2   13   11   -0.000876   -0.001685
   -3    0   -2   14   11   -0.000745    0.000231
   -3    0   -2   15   11   -0.004248   -0.002084
   -3    0   -2   16   11   -0.000715   -0.000057
   -3    0   -2   17   11   -0.000255    0.002415
   -3    0   -2   18   11   -0.005854   -0.008989
   -3    0   -2   19   11    0.000091   -0.000111
   -3    0   -2   20   11    0.000438   -0.000901
   -3    0   -2   21   11   -0.012937   -0.004621
   -3    0   -2   22   11    0.000538    0.001556
   -3    0   -2    1   12    0.003393    0.000072
   -3    0   -2    2   12   -0.002048   -0.000896
   -3    0   -2    3   12   -0.000854    0.000375
   -3    0   -2    4   12   -0.000605   -0.002156
   -3    0   -2    5   12    0.006009    0.002996
   -3    0   -2    6   12    0.004051    0.001892
   -3    0   -2    7   12    0.003849    0.000678
   -3    0   -2    8   12   -0.005462    0.001284
   -3    0   -2    9   12    0.003426    0.000457
   -3    0   -2   10   12    0.002261    0.005010
   -3    0   -2   11   12   -0.000718   -0.004975
   -3    0   -2   12   12   -0.003009   -0.000967
   -3    0   -2   13   12   -0.001355   -0.001639
   -3    0   -2   14   12   -0.012773    0.001525
   -3    0   -2   15   12    0.002422   -0.002978
   -3    0   -2   16   12    0.001329    0.000383
   -3    0   -2   17   12   -0.000770    0.001197
   -3    0   -2   18   12    0.003363    0.004023
   -3    0   -2   19   12    0.004921    0.003920
   -3    0   -2   20   12   -0.000705   -0.009039
   -3    0   -2   21   12   -0.008129    0.003707
   -3    0   -2   22   12    0.001251    0.001987
   -3    0   -2    1   13   -0.002570    0.001482
   -3    0   -2    2   13    0.001949   -0.000052
   -3    0   -2    3   13    0.003059    0.002088
   -3    0   -2    4   13   -0.001402    0.000342
   -3    0   -2    5   13    0.001065    0.000338
   -3    0   -2    6   13    0.003049    0.000797
   -3    0   -2    7   13    0.001080    0.000609
   -3    0   -2    8   13   -0.000684    0.001668
   -3    0   -2    9   13   -0.000587    0.001482
   -3    0   -2   10   13   -0.001060    0.001401
   -3    0   -2   11   13    0.000712    0.001985
   -3    0   -2   12   13   -0.001121    0.003131
   -3    0   -2   13   13    0.003620   -0.001174
   -3    0   -2   14   13   -0.000419    0.001008
   -3    0   -2   15   13    0.003741   -0.002404
   -3    0   -2   16   13    0.000089    0.000963
   -3    0   -2   17   13   -0.001640    0.000298
   -3    0   -2   18   13    0.011835   -0.011409
   -3    0   -2   19   13    0.001710    0.003725
   -3    0   -2   20   13    0.000342   -0.000775
   -3    0   -2   21   13    0.001381   -0.014990
   -3    0   -2   22   13    0.002710   -0.000237
   -3    0   -2    1   14    0.000233    0.000069
   -3    0   -2    2   14    0.000575    0.000135
   -3    0   -2    3   14   -0.000739   -0.000794
   -3    0   -2    4   14    0.000422   -0.000370
   -3    0   -2    5   14   -0.000813    0.000037
   -3    0   -2    6   14    0.002048    0.000421
   -3    0   -2    7   14    0.000918   -0.001905
   -3    0   -2    8   14   -0.000813   -0.000672
   -3    0   -2    9   14    0.000812    0.000782
   -3    0   -2   10   14    0.001031    0.001332
   -3    0   -2   11   14   -0.000209    0.001590
   -3    0   -2   12   14   -0.000842    0.000442
   -3    0   -2   13   14   -0.001543   -0.000619
   -3    0   -2   14   14   -0.000994   -0.000080
   -3    0   -2   15   14   -0.000900    0.000977
   -3    0   -2   16   14   -0.000089   -0.000516
   -3    0   -2   17   14   -0.000630   -0.000398
   -3    0   -2   18   14   -0.000692    0.000481
   -3    0   -2   19   14   -0.002392    0.000500
   -3    0   -2   20   14   -0.000871    0.001224
   -3    0   -2   21   14   -0.000962   -0.000196
   -3    0   -2   22   14   -0.000659    0.000120
   -3    0   -2    1   15    0.000287   -0.002444
   -3    0   -2    2   15   -0.000076   -0.000149
   -3    0   -2    3   15   -0.002254    0.002514
   -3    0   -2    4   15    0.001103   -0.001317
   -3    0   -2    5   15    0.000909    0.001249
   -3    0   -2    6   15   -0.001187    0.004611
   -3    0   -2    7   15    0.000038   -0.001732
   -3    0   -2    8   15   -0.000341   -0.001105
   -3    0   -2    9   15    0.000150   -0.000166
   -3    0   -2   10   15   -0.006465    0.003708
   -3    0   -2   11   15   -0.003414   -0.000347
   -3    0   -2   12   15   -0.000130    0.001114
   -3    0   -2   13   15    0.001890    0.002258
   -3    0   -2   14   15    0.000645    0.000840
   -3    0   -2   15   15    0.002130    0.003898
   -3    0   -2   16   15   -0.000525    0.000219
   -3    0   -2   17   15   -0.001060   -0.002644
   -3    0   -2   18   15   -0.000262    0.003162
   -3    0   -2   19   15   -0.002019    0.002086
   -3    0   -2   20   15   -0.000681    0.001460
   -3    0   -2   21   15    0.019407   -0.003702
   -3    0   -2   22   15    0.000720    0.000378
   -3    0   -2    1   16   -0.001448   -0.000862
   -3    0   -2    2   16    0.000532    0.000063
   -3    0   -2    3   16    0.002013    0.000215
   -3    0   -2    4   16    0.002217    0.000391
   -3    0   -2    5   16    0.000968    0.001200
   -3    0   -2    6   16    0.001956   -0.000706
   -3    0   -2    7   16    0.009711    0.003643
   -3    0   -2    8   16    0.000166   -0.000317
   -3    0   -2    9   16   -0.003263   -0.000299
   -3    0   -2   10   16   -0.004412   -0.001857
   -3    0   -2   11   16    0.000997   -0.000451
   -3    0   -2   12   16   -0.001540    0.000232
   -3    0   -2   13   16   -0.002063   -0.000125
   -3    0   -2   14   16   -0.003679    0.002004
   -3    0   -2   15   16   -0.000314   -0.000349
   -3    0   -2   16   16   -0.002007   -0.000039
   -3    0   -2   17   16    0.000235    0.001727
   -3    0   -2   18   16    0.003441    0.000502
   -3    0   -2   19   16    0.000858   -0.000380
   -3    0   -2   20   16   -0.004526   -0.000357
   -3    0   -2   21   16   -0.000469    0.000621
   -3    0   -2   22   16    0.003274   -0.000867
   -3    0   -2    1   17   -0.004659   -0.004296
   -3    0   -2    2   17   -0.000293    0.000088
   -3    0   -2    3   17    0.005912    0.003412
   -3    0   -2    4   17   -0.002232   -0.000306
   -3    0   -2    5   17   -0.001842    0.000651
   -3    0   -2    6   17    0.005771    0.001430
   -3    0   -2    7   17   -0.001547    0.002248
   -3    0   -2    8   17   -0.000340   -0.000658
   -3    0   -2    9   17   -0.004761    0.001844
   -3    0   -2   10   17    0.000037   -0.002186
   -3    0   -2   11   17    0.003141    0.007861
   -3    0   -2   12   17    0.001053   -0.001033
   -3    0   -2   13   17    0.005343   -0.001544
   -3    0   -2   14   17   -0.000886    0.000086
   -3    0   -2   15   17    0.000850   -0.010110
   -3    0   -2   16   17   -0.001410    0.000415
   -3    0   -2   17   17   -0.001458    0.003754
   -3    0   -2   18   17    0.002484    0.006911
   -3    0   -2   19   17    0.000617    0.000349
   -3    0   -2   20   17   -0.001356   -0.001510
   -3    0   -2   21   17   -0.013082   -0.005969
   -3    0   -2   22   17    0.000082    0.002171
   -3    0   -2    1   18   -0.009541    0.006334
   -3    0   -2    2   18    0.000914   -0.000278
   -3    0   -2    3   18    0.015764   -0.004627
   -3    0   -2    4   18   -0.000824   -0.008398
   -3    0   -2    5   18    0.002923    0.005491
   -3    0   -2    6   18   -0.000008   -0.006938
   -3    0   -2    7   18   -0.003728   -0.003631
   -3    0   -2    8   18    0.003172   -0.001450
   -3    0   -2    9   18   -0.015318    0.013017
   -3    0   -2   10   18   -0.010352    0.006943
   -3    0   -2   11   18    0.016041    0.005948
   -3    0   -2   12   18    0.000570   -0.000952
   -3    0   -2   13   18    0.010359   -0.014025
   -3    0   -2   14   18   -0.000882    0.001434
   -3    0   -2   15   18   -0.012319   -0.005574
   -3    0   -2   16   18    0.000407   -0.002361
   -3    0   -2   17   18   -0.000985    0.001802
   -3    0   -2   18   18   -0.006795    0.016621
   -3    0   -2   19   18    0.001330    0.001097
   -3    0   -2   20   18    0.001474   -0.002084
   -3    0   -2   21   18    0.001221   -0.010453
   -3    0   -2   22   18    0.001241    0.016256
   -3    0   -2    1   19   -0.000117    0.000538
   -3    0   -2    2   19    0.001016   -0.000217
   -3    0   -2    3   19    0.000621   -0.000932
   -3    0   -2    4   19   -0.000670    0.001036
   -3    0   -2    5   19   -0.000844   -0.002473
   -3    0   -2    6   19   -0.000003    0.001055
   -3    0   -2    7   19    0.008245    0.003943
   -3    0   -2    8   19   -0.003733    0.001354
   -3    0   -2    9   19   -0.001074   -0.000257
   -3    0   -2   10   19    0.003425    0.002636
   -3    0   -2   11   19   -0.001523   -0.000548
   -3    0   -2   12   19   -0.002659   -0.002427
   -3    0   -2   13   19    0.001257   -0.002083
   -3    0   -2   14   19   -0.002215   -0.001885
   -3    0   -2   15   19   -0.000561   -0.001395
   -3    0   -2   16   19   -0.000119    0.000051
   -3    0   -2   17   19   -0.000128    0.000739
   -3    0   -2   18   19   -0.002428   -0.001471
   -3    0   -2   19   19   -0.001065    0.000351
   -3    0   -2   20   19    0.002347    0.002232
   -3    0   -2   21   19   -0.002422   -0.001833
   -3    0   -2   22   19   -0.001064   -0.000827
   -3    0   -2    1   20   -0.001450   -0.001125
   -3    0   -2    2   20    0.000205    0.000498
   -3    0   -2    3   20    0.000087    0.000351
   -3    0   -2    4   20   -0.000353   -0.000584
   -3    0   -2    5   20    0.000424    0.000065
   -3    0   -2    6   20   -0.001401   -0.000321
   -3    0   -2    7   20   -0.003012    0.000507
   -3    0   -2    8   20   -0.000937   -0.002076
   -3    0   -2    9   20   -0.000049    0.000418
   -3    0   -2   10   20   -0.001518   -0.000135
   -3    0   -2   11   20    0.001196   -0.000595
   -3    0   -2   12   20    0.001090   -0.000410
   -3    0   -2   13   20    0.001914    0.000411
   -3    0   -2   14   20    0.000247   -0.000490
   -3    0   -2   15   20   -0.000554    0.000792
   -3    0   -2   16   20   -0.000167    0.000580
   -3    0   -2   17   20   -0.000613    0.000175
   -3    0   -2   18   20    0.000721   -0.000838
   -3    0   -2   19   20    0.001449   -0.001521
   -3    0   -2   20   20   -0.000411    0.001011
   -3    0   -2   21   20    0.002376    0.000125
   -3    0   -2   22   20    0.000092    0.000651
   -3    0   -2    1   21   -0.003039    0.008897
   -3    0   -2    2   21    0.000811    0.000988
   -3    0   -2    3   21    0.001379   -0.015445
   -3    0   -2    4   21    0.004272    0.006700
   -3    0   -2    5   21   -0.003420    0.008253
   -3    0   -2    6   21   -0.004340   -0.005020
   -3    0   -2    7   21    0.001545    0.001197
   -3    0   -2    8   21    0.003756    0.002128
   -3    0   -2    9   21    0.002825    0.013869
   -3    0   -2   10   21   -0.001652   -0.004139
   -3    0   -2   11   21    0.011367   -0.010050
   -3    0   -2   12   21   -0.000960   -0.000251
   -3    0   -2   13   21   -0.008701   -0.008400
   -3    0   -2   14   21    0.000539    0.000420
   -3    0   -2   15   21   -0.010398    0.008740
   -3    0   -2   16   21    0.002638   -0.002241
   -3    0   -2   17   21   -0.000144   -0.001339
   -3    0   -2   18   21    0.003643   -0.004344
   -3    0   -2   19   21    0.001921   -0.000904
   -3    0   -2   20   21    0.000147    0.000220
   -3    0   -2   21   21   -0.006603   -0.021282
   -3    0   -2   22   21    0.007935    0.005941
   -3    0   -2    1   22   -0.000751    0.003491
   -3    0   -2    2   22    0.000454    0.000336
   -3    0   -2    3   22   -0.000624   -0.000383
   -3    0   -2    4   22    0.000298   -0.002039
   -3    0   -2    5   22    0.001811    0.003215
   -3    0   -2    6   22    0.002137    0.001372
   -3    0   -2    7   22    0.000122   -0.002906
   -3    0   -2    8   22    0.000780   -0.000139
   -3    0   -2    9   22    0.002691    0.004299
   -3    0   -2   10   22   -0.003663    0.000491
   -3    0   -2   11   22    0.001206   -0.004232
   -3    0   -2   12   22    0.000125   -0.000435
   -3    0   -2   13   22   -0.001163    0.001490
   -3    0   -2   14   22    0.001032    0.001428
   -3    0   -2   15   22    0.000522    0.003400
   -3    0   -2   16   22   -0.001312   -0.001045
   -3    0   -2   17   22    0.000727   -0.001012
   -3    0   -2   18   22   -0.007473   -0.005136
   -3    0   -2   19   22   -0.000958    0.000737
   -3    0   -2   20   22   -0.002215   -0.000753
   -3    0   -2   21   22    0.005158    0.009210
   -3    0   -2   22   22    0.009470    0.001687
   -3    0   -1    1    1   -0.000169   -0.000325
   -3    0   -1    2    1   -0.000479    0.000600
   -3    0   -1    3    1   -0.003242   -0.000415
   -3    0   -1    4    1   -0.001793   -0.000718
   -3    0   -1    5    1    0.000980   -0.001409
   -3    0   -1    6    1    0.000652    0.004276
   -3    0   -1    7    1    0.000055    0.001563
   -3    0   -1    8    1   -0.000824   -0.000697
   -3    0   -1    9    1    0.002655    0.000533
   -3    0   -1   10    1    0.003435    0.000680
   -3    0   -1   11    1   -0.003879   -0.001891
   -3    0   -1   12    1   -0.000631   -0.001693
   -3    0   -1   13    1   -0.001714   -0.002201
   -3    0   -1   14    1    0.001908   -0.000361
   -3    0   -1   15    1    0.002077    0.003315
   -3    0   -1   16    1   -0.000606   -0.000611
   -3    0   -1   17    1   -0.003060   -0.000509
   -3    0   -1   18    1   -0.005672   -0.005151
   -3    0   -1   19    1    0.000122   -0.000066
   -3    0   -1   20    1   -0.000209   -0.000659
   -3    0   -1   21    1   -0.010923   -0.017356
   -3    0   -1   22    1   -0.000678   -0.002176
   -3    0   -1    1    2    0.000436   -0.000864
   -3    0   -1    2    2   -0.001576    0.000114
   -3    0   -1    3    2    0.000195    0.000749
   -3    0   -1    4    2   -0.000121   -0.000341
   -3    0   -1    5    2   -0.000003    0.000515
   -3    0   -1    6    2    0.001458   -0.002015
   -3    0   -1    7    2   -0.006091   -0.000850
   -3    0   -1    8    2    0.001067    0.002265
   -3    0   -1    9    2   -0.000075    0.001451
   -3    0   -1   10    2   -0.003106   -0.003332
   -3    0   -1   11    2    0.000124    0.000037
   -3    0   -1   12    2   -0.001996    0.002012
   -3    0   -1   13    2    0.000504   -0.002034
   -3    0   -1   14    2    0.001515    0.001623
   -3    0   -1   15    2    0.000335    0.000372
   -3    0   -1   16    2    0.000461    0.000182
   -3    0   -1   17    2   -0.000556    0.000629
   -3    0   -1   18    2    0.000450   -0.000455
   -3    0   -1   19    2   -0.000980    0.000003
   -3    0   -1   20    2    0.001091   -0.002770
   -3    0   -1   21    2    0.000818    0.001255
   -3    0   -1   22    2    0.000621    0.000218
   -3    0   -1    1    3   -0.005471   -0.000041
   -3    0   -1    2    3    0.002262    0.001838
   -3    0   -1    3    3    0.002965   -0.000081
   -3    0   -1    4    3   -0.000272    0.000100
   -3    0   -1    5    3   -0.000495    0.000703
   -3    0   -1    6    3    0.001985   -0.002253
   -3    0   -1    7    3    0.000785    0.000016
   -3    0   -1    8    3   -0.000159    0.000930
   -3    0   -1    9    3   -0.000505   -0.000197
   -3    0   -1   10    3   -0.001247   -0.000964
   -3    0   -1   11    3    0.003204    0.001862
   -3    0   -1   12    3    0.001383   -0.001673
   -3    0   -1   13    3    0.003980   -0.002560
   -3    0   -1   14    3   -0.000527   -0.000320
   -3    0   -1   15    3   -0.002529   -0.002496
   -3    0   -1   16    3   -0.000145    0.000385
   -3    0   -1   17    3    0.004497    0.002439
   -3    0   -1   18    3    0.012602    0.002753
   -3    0   -1   19    3   -0.000034    0.001630
   -3    0   -1   20    3    0.000174    0.001513
   -3    0   -1   21    3    0.001545    0.017902
   -3    0   -1   22    3   -0.000744   -0.000390
   -3    0   -1    1    4    0.002586   -0.000596
   -3    0   -1    2    4    0.000036    0.000182
   -3    0   -1    3    4    0.000484    0.000683
   -3    0   -1    4    4   -0.000542    0.000330
   -3    0   -1    5    4    0.002851    0.002159
   -3    0   -1    6    4    0.000740    0.002560
   -3    0   -1    7    4   -0.000193    0.000602
   -3    0   -1    8    4    0.000396    0.001945
   -3    0   -1    9    4    0.003552   -0.000536
   -3    0   -1   10    4    0.012789    0.012492
   -3    0   -1   11    4   -0.002444   -0.000563
   -3    0   -1   12    4    0.000375    0.002863
   -3    0   -1   13    4   -0.000297   -0.001289
   -3    0   -1   14    4    0.002285    0.001157
   -3    0   -1   15    4    0.000935    0.000530
   -3    0   -1   16    4    0.000279    0.000098
   -3    0   -1   17    4   -0.001336   -0.002029
   -3    0   -1   18    4   -0.002424    0.008385
   -3    0   -1   19    4    0.005089   -0.002062
   -3    0   -1   20    4    0.002988   -0.004735
   -3    0   -1   21    4    0.000941   -0.006556
   -3    0   -1   22    4    0.002045    0.003258
   -3    0   -1    1    5   -0.000047   -0.002761
   -3    0   -1    2    5    0.000172   -0.001118
   -3    0   -1    3    5   -0.000644    0.001104
   -3    0   -1    4    5    0.001934   -0.002627
   -3    0   -1    5    5    0.001528   -0.000489
   -3    0   -1    6    5    0.001124    0.000842
   -3    0   -1    7    5   -0.001261    0.000363
   -3    0   -1    8    5   -0.003234    0.000014
   -3    0   -1    9    5   -0.000270   -0.000998
   -3    0   -1   10    5    0.008907   -0.004369
   -3    0   -1   11    5   -0.000525    0.002003
   -3    0   -1   12    5    0.001179   -0.002551
   -3    0   -1   13    5    0.002202    0.000714
   -3    0   -1   14    5   -0.001200   -0.001052
   -3    0   -1   15    5    0.000075   -0.002080
   -3    0   -1   16    5    0.000892    0.000450
   -3    0   -1   17    5   -0.001313    0.000957
   -3    0   -1   18    5    0.004294   -0.005674
   -3    0   -1   19    5   -0.002281   -0.000062
   -3    0   -1   20    5    0.000801   -0.001101
   -3    0   -1   21    5   -0.000655   -0.008519
   -3    0   -1   22    5    0.002755   -0.001096
   -3    0   -1    1    6   -0.001039   -0.003465
   -3    0   -1    2    6   -0.001361   -0.001527
   -3    0   -1    3    6   -0.000305    0.000380
   -3    0   -1    4    6    0.002156    0.000014
   -3    0   -1    5    6   -0.000285   -0.000528
   -3    0   -1    6    6   -0.003597   -0.001574
   -3    0   -1    7    6    0.000094   -0.001329
   -3    0   -1    8    6    0.000485   -0.003485
   -3    0   -1    9    6   -0.001945   -0.002322
   -3    0   -1   10    6   -0.000281    0.002774
   -3    0   -1   11    6    0.001547    0.000782
   -3    0   -1   12    6    0.002147   -0.000329
   -3    0   -1   13    6    0.003209    0.001621
   -3    0   -1   14    6    0.000077   -0.001143
   -3    0   -1   15    6   -0.001077   -0.003515
   -3    0   -1   16    6   -0.000038   -0.000357
   -3    0   -1   17    6    0.001352    0.000966
   -3    0   -1   18    6    0.001020    0.001450
   -3    0   -1   19    6    0.000197   -0.002442
   -3    0   -1   20    6    0.000137    0.000510
   -3    0   -1   21    6   -0.001043    0.006992
   -3    0   -1   22    6    0.001546   -0.003230
   -3    0   -1    1    7    0.000915   -0.001333
   -3    0   -1    2    7    0.000384   -0.000703
   -3    0   -1    3    7   -0.002437   -0.000263
   -3    0   -1    4    7    0.004367   -0.003124
   -3    0   -1    5    7   -0.001135    0.001314
   -3    0   -1    6    7    0.000899   -0.000930
   -3    0   -1    7    7   -0.002519    0.001225
   -3    0   -1    8    7    0.001698   -0.003734
   -3    0   -1    9    7   -0.002632    0.002606
   -3    0   -1   10    7    0.001712   -0.000941
   -3    0   -1   11    7    0.000729    0.000790
   -3    0   -1   12    7    0.000047   -0.004876
   -3    0   -1   13    7   -0.001118    0.001029
   -3    0   -1   14    7    0.002113    0.000772
   -3    0   -1   15    7    0.000550    0.000797
   -3    0   -1   16    7   -0.000211   -0.000988
   -3    0   -1   17    7   -0.001246    0.000104
   -3    0   -1   18    7   -0.001639    0.004016
   -3    0   -1   19    7    0.000072   -0.003645
   -3    0   -1   20    7   -0.005137   -0.001179
   -3    0   -1   21    7    0.002721   -0.000833
   -3    0   -1   22    7   -0.000097    0.000369
   -3    0   -1    1    8   -0.001254   -0.000915
   -3    0   -1    2    8   -0.000049    0.000972
   -3    0   -1    3    8   -0.000792   -0.000564
   -3    0   -1    4    8   -0.001393   -0.000437
   -3    0   -1    5    8   -0.003104    0.000112
   -3    0   -1    6    8    0.001082    0.000682
   -3    0   -1    7    8   -0.002683    0.009113
   -3    0   -1    8    8   -0.001442    0.000498
   -3    0   -1    9    8   -0.000434   -0.001784
   -3    0   -1   10    8    0.000805   -0.000936
   -3    0   -1   11    8   -0.000435    0.000332
   -3    0   -1   12    8   -0.005188   -0.002788
   -3    0   -1   13    8   -0.001347   -0.000656
   -3    0   -1   14    8    0.000569    0.000006
   -3    0   -1   15    8   -0.000930   -0.000414
   -3    0   -1   16    8   -0.000452    0.001021
   -3    0   -1   17    8   -0.000580   -0.000990
   -3    0   -1   18    8    0.002045   -0.000182
   -3    0   -1   19    8   -0.003367   -0.002577
   -3    0   -1   20    8   -0.000467    0.001444
   -3    0   -1   21    8    0.003606   -0.004584
   -3    0   -1   22    8    0.000410   -0.000131
   -3    0   -1    1    9    0.003266    0.001888
   -3    0   -1    2    9   -0.002594   -0.000037
   -3    0   -1    3    9   -0.002116   -0.001197
   -3    0   -1    4    9   -0.000854   -0.001564
   -3    0   -1    5    9    0.001041   -0.000617
   -3    0   -1    6    9   -0.003289    0.001047
   -3    0   -1    7    9    0.000298   -0.000513
   -3    0   -1    8    9    0.000399   -0.004482
   -3    0   -1    9    9    0.001947    0.000796
   -3    0   -1   10    9    0.002104    0.004179
   -3    0   -1   11    9   -0.001344   -0.003775
   -3    0   -1   12    9    0.000707    0.001345
   -3    0   -1   13    9   -0.000185   -0.000381
   -3    0   -1   14    9    0.001341   -0.001031
   -3    0   -1   15    9    0.003032   -0.000165
   -3    0   -1   16    9   -0.000118   -0.001078
   -3    0   -1   17    9   -0.002661   -0.003260
   -3    0   -1   18    9   -0.013476   -0.012240
   -3    0   -1   19    9   -0.000135    0.001533
   -3    0   -1   20    9   -0.000812    0.001139
   -3    0   -1   21    9    0.001009   -0.023333
   -3    0   -1   22    9    0.002816   -0.002360
   -3    0   -1    1   10   -0.000096    0.001832
   -3    0   -1    2   10   -0.000543    0.000615
   -3    0   -1    3   10    0.000919   -0.000723
   -3    0   -1    4   10   -0.001696   -0.002064
   -3    0   -1    5   10    0.001913   -0.004965
   -3    0   -1    6   10   -0.001348   -0.001572
   -3    0   -1    7   10   -0.000435    0.002263
   -3    0   -1    8   10    0.003005    0.000194
   -3    0   -1    9   10    0.000810   -0.000502
   -3    0   -1   10   10    0.006623   -0.000477
   -3    0   -1   11   10   -0.001219   -0.000227
   -3    0   -1   12   10   -0.000126   -0.000873
   -3    0   -1   13   10   -0.001434   -0.001544
   -3    0   -1   14   10    0.001920   -0.002255
   -3    0   -1   15   10   -0.002405    0.000199
   -3    0   -1   16   10   -0.000184    0.000060
   -3    0   -1   17   10    0.001612    0.000232
   -3    0   -1   18   10   -0.002810   -0.007265
   -3    0   -1   19   10    0.000926   -0.002437
   -3    0   -1   20   10   -0.003531   -0.000027
   -3    0   -1   21   10    0.001308    0.003621
   -3    0   -1   22   10   -0.001739   -0.001578
   -3    0   -1    1   11   -0.003660    0.001771
   -3    0   -1    2   11   -0.000245    0.000377
   -3    0   -1    3   11    0.003454   -0.002063
   -3    0   -1    4   11    0.001293    0.000180
   -3    0   -1    5   11   -0.001829    0.002312
   -3    0   -1    6   11    0.001195   -0.000219
   -3    0   -1    7   11    0.000622    0.000433
   -3    0   -1    8   11   -0.000657    0.001020
   -3    0   -1    9   11   -0.003069    0.004842
   -3    0   -1   10   11    0.001877   -0.001636
   -3    0   -1   11   11    0.001694    0.000256
   -3    0   -1   12   11   -0.000123   -0.000051
   -3    0   -1   13   11   -0.000148   -0.002214
   -3    0   -1   14   11    0.000286    0.001156
   -3    0   -1   15   11   -0.003597    0.002322
   -3    0   -1   16   11    0.000013   -0.000597
   -3    0   -1   17   11    0.004428   -0.001889
   -3    0   -1   18   11    0.016699   -0.002770
   -3    0   -1   19   11    0.000110   -0.000632
   -3    0   -1   20   11    0.000100   -0.002069
   -3    0   -1   21   11    0.014613    0.006398
   -3    0   -1   22   11    0.000376    0.003621
   -3    0   -1    1   12   -0.000413   -0.004186
   -3    0   -1    2   12    0.002826    0.003143
   -3    0   -1    3   12    0.001314    0.002082
   -3    0   -1    4   12   -0.000778   -0.000537
   -3    0   -1    5   12    0.010011    0.004097
   -3    0   -1    6   12    0.003004    0.000065
   -3    0   -1    7   12    0.007963    0.009085
   -3    0   -1    8   12   -0.002888    0.003810
   -3    0   -1    9   12   -0.000602   -0.000843
   -3    0   -1   10   12   -0.003079   -0.024762
   -3    0   -1   11   12   -0.000324    0.000369
   -3    0   -1   12   12   -0.002881   -0.000834
   -3    0   -1   13   12    0.001945   -0.000056
   -3    0   -1   14   12   -0.015335   -0.009373
   -3    0   -1   15   12    0.001925   -0.001076
   -3    0   -1   16   12   -0.006607   -0.003344
   -3    0   -1   17   12    0.000596    0.002161
   -3    0   -1   18   12    0.000537    0.008142
   -3    0   -1   19   12    0.000941    0.004484
   -3    0   -1   20   12   -0.003297   -0.004073
   -3    0   -1   21   12   -0.003293    0.002400
   -3    0   -1   22   12    0.002442    0.004737
   -3    0   -1    1   13   -0.002537   -0.001332
   -3    0   -1    2   13   -0.002340   -0.001515
   -3    0   -1    3   13    0.003712    0.002768
   -3    0   -1    4   13   -0.000081    0.002320
   -3    0   -1    5   13   -0.000509    0.000207
   -3    0   -1    6   13    0.005645   -0.000167
   -3    0   -1    7   13    0.002122    0.000741
   -3    0   -1    8   13   -0.002444    0.000747
   -3    0   -1    9   13    0.001065    0.000717
   -3    0   -1   10   13   -0.001562    0.000412
   -3    0   -1   11   13   -0.000648    0.002604
   -3    0   -1   12   13   -0.000896    0.000937
   -3    0   -1   13   13    0.003718   -0.000155
   -3    0   -1   14   13   -0.000776   -0.000565
   -3    0   -1   15   13    0.003676   -0.002022
   -3    0   -1   16   13   -0.000687    0.000934
   -3    0   -1   17   13    0.001926    0.004624
   -3    0   -1   18   13    0.006945    0.012714
   -3    0   -1   19   13    0.000259    0.003309
   -3    0   -1   20   13    0.000854    0.001060
   -3    0   -1   21   13   -0.015633    0.012726
   -3    0   -1   22   13    0.001637    0.001465
   -3    0   -1    1   14   -0.000845    0.000062
   -3    0   -1    2   14   -0.000141   -0.000064
   -3    0   -1    3   14   -0.001041    0.000004
   -3    0   -1    4   14    0.000536   -0.000031
   -3    0   -1    5   14   -0.000536    0.000321
   -3    0   -1    6   14    0.000699    0.000215
   -3    0   -1    7   14    0.000376   -0.000383
   -3    0   -1    8   14   -0.000207    0.000139
   -3    0   -1    9   14   -0.000933    0.000196
   -3    0   -1   10   14    0.001663    0.000682
   -3    0   -1   11   14   -0.000526    0.002242
   -3    0   -1   12   14   -0.001288    0.000739
   -3    0   -1   13   14   -0.001613    0.000113
   -3    0   -1   14   14   -0.000647    0.000518
   -3    0   -1   15   14   -0.000725    0.001277
   -3    0   -1   16   14   -0.000864    0.000124
   -3    0   -1   17   14   -0.000334   -0.000770
   -3    0   -1   18   14   -0.000345    0.000248
   -3    0   -1   19   14   -0.001876    0.000657
   -3    0   -1   20   14    0.000480   -0.000009
   -3    0   -1   21   14   -0.001234   -0.001898
   -3    0   -1   22   14   -0.000288    0.000523
   -3    0   -1    1   15   -0.000804   -0.005890
   -3    0   -1    2   15    0.000200   -0.000048
   -3    0   -1    3   15   -0.000132    0.002925
   -3    0   -1    4   15   -0.001597    0.000867
   -3    0   -1    5   15    0.000436   -0.000103
   -3    0   -1    6   15   -0.000231    0.004287
   -3    0   -1    7   15   -0.000243   -0.000503
   -3    0   -1    8   15   -0.003225   -0.000868
   -3    0   -1    9   15   -0.000958   -0.000541
   -3    0   -1   10   15   -0.003113    0.003179
   -3    0   -1   11   15   -0.003555    0.000878
   -3    0   -1   12   15    0.002357    0.001427
   -3    0   -1   13   15    0.004151    0.001207
   -3    0   -1   14   15   -0.000532    0.000014
   -3    0   -1   15   15    0.002386   -0.000695
   -3    0   -1   16   15   -0.000386    0.000560
   -3    0   -1   17   15   -0.003983    0.003168
   -3    0   -1   18   15   -0.003563    0.002879
   -3    0   -1   19   15   -0.001719    0.002224
   -3    0   -1   20   15    0.001626    0.001224
   -3    0   -1   21   15   -0.017261   -0.013865
   -3    0   -1   22   15   -0.000126   -0.000321
   -3    0   -1    1   16   -0.000234   -0.000353
   -3    0   -1    2   16    0.000659    0.000404
   -3    0   -1    3   16   -0.000431   -0.000350
   -3    0   -1    4   16   -0.000017   -0.000918
   -3    0   -1    5   16    0.001522   -0.001042
   -3    0   -1    6   16    0.001536    0.000844
   -3    0   -1    7   16   -0.004271   -0.000450
   -3    0   -1    8   16    0.000187    0.001043
   -3    0   -1    9   16   -0.000316   -0.000887
   -3    0   -1   10   16   -0.003092   -0.006000
   -3    0   -1   11   16   -0.000551   -0.001176
   -3    0   -1   12   16    0.000819   -0.002175
   -3    0   -1   13   16   -0.001651   -0.000084
   -3    0   -1   14   16   -0.000333   -0.001955
   -3    0   -1   15   16    0.000873    0.000621
   -3    0   -1   16   16   -0.002177   -0.000043
   -3    0   -1   17   16    0.001802    0.001369
   -3    0   -1   18   16    0.001297    0.003311
   -3    0   -1   19   16   -0.001050   -0.000111
   -3    0   -1   20   16   -0.001537    0.002339
   -3    0   -1   21   16    0.002984    0.001856
   -3    0   -1   22   16    0.001979   -0.001552
   -3    0   -1    1   17    0.001498   -0.000157
   -3    0   -1    2   17    0.000179   -0.000068
   -3    0   -1    3   17   -0.003042   -0.001845
   -3    0   -1    4   17    0.001982   -0.001777
   -3    0   -1    5   17   -0.000784    0.003043
   -3    0   -1    6   17   -0.002986    0.001290
   -3    0   -1    7   17    0.000743    0.000871
   -3    0   -1    8   17   -0.000304   -0.000016
   -3    0   -1    9   17   -0.000050   -0.000744
   -3    0   -1   10   17   -0.000460   -0.001953
   -3    0   -1   11   17   -0.000903   -0.003428
   -3    0   -1   12   17    0.001006   -0.001730
   -3    0   -1   13   17   -0.004918   -0.002083
   -3    0   -1   14   17   -0.001051    0.000255
   -3    0   -1   15   17   -0.000989    0.006114
   -3    0   -1   16   17    0.000074    0.000038
   -3    0   -1   17   17    0.001208   -0.000702
   -3    0   -1   18   17   -0.001878    0.001863
   -3    0   -1   19   17    0.000513   -0.000087
   -3    0   -1   20   17   -0.001597   -0.002197
   -3    0   -1   21   17   -0.003005   -0.008135
   -3    0   -1   22   17    0.003748   -0.001315
   -3    0   -1    1   18   -0.004972   -0.007871
   -3    0   -1    2   18    0.001106    0.000239
   -3    0   -1    3   18   -0.003747    0.011007
   -3    0   -1    4   18    0.011657    0.003280
   -3    0   -1    5   18   -0.008410    0.003764
   -3    0   -1    6   18   -0.002145    0.007378
   -3    0   -1    7   18    0.003044    0.002659
   -3    0   -1    8   18   -0.004258    0.000305
   -3    0   -1    9   18   -0.004244   -0.006943
   -3    0   -1   10   18   -0.001753   -0.008351
   -3    0   -1   11   18   -0.006857    0.002412
   -3    0   -1   12   18    0.001219   -0.001904
   -3    0   -1   13   18    0.011759    0.012875
   -3    0   -1   14   18   -0.000094    0.000451
   -3    0   -1   15   18   -0.002007    0.007263
   -3    0   -1   16   18    0.002887    0.001065
   -3    0   -1   17   18    0.001590   -0.001543
   -3    0   -1   18   18   -0.004436   -0.017653
   -3    0   -1   19   18   -0.003236    0.000471
   -3    0   -1   20   18    0.001051   -0.000398
   -3    0   -1   21   18    0.009324    0.009040
   -3    0   -1   22   18   -0.010340    0.002982
   -3    0   -1    1   19    0.001266    0.000858
   -3    0   -1    2   19    0.000093    0.000026
   -3    0   -1    3   19   -0.001148   -0.000900
   -3    0   -1    4   19   -0.004347    0.000404
   -3    0   -1    5   19   -0.000396   -0.005072
   -3    0   -1    6   19    0.000892    0.000840
   -3    0   -1    7   19   -0.003128    0.002150
   -3    0   -1    8   19   -0.002994    0.002232
   -3    0   -1    9   19    0.001348   -0.000094
   -3    0   -1   10   19    0.004827    0.004311
   -3    0   -1   11   19   -0.002672   -0.001164
   -3    0   -1   12   19   -0.003028   -0.002090
   -3    0   -1   13   19    0.000044   -0.001980
   -3    0   -1   14   19   -0.001242   -0.003056
   -3    0   -1   15   19   -0.000501   -0.000868
   -3    0   -1   16   19    0.000072    0.000274
   -3    0   -1   17   19    0.000453    0.000298
   -3    0   -1   18   19    0.002471    0.000613
   -3    0   -1   19   19   -0.001602   -0.000576
   -3    0   -1   20   19    0.003112    0.002650
   -3    0   -1   21   19    0.001772    0.003849
   -3    0   -1   22   19   -0.001093   -0.000357
   -3    0   -1    1   20   -0.000537   -0.001451
   -3    0   -1    2   20   -0.000982   -0.000884
   -3    0   -1    3   20   -0.000118   -0.000617
   -3    0   -1    4   20    0.000708   -0.000285
   -3    0   -1    5   20    0.000935    0.000685
   -3    0   -1    6   20   -0.001547    0.000143
   -3    0   -1    7   20   -0.002691    0.001355
   -3    0   -1    8   20   -0.001768   -0.000404
   -3    0   -1    9   20   -0.000427    0.000358
   -3    0   -1   10   20   -0.000917    0.000568
   -3    0   -1   11   20    0.002052   -0.001323
   -3    0   -1   12   20    0.000066    0.000265
   -3    0   -1   13   20    0.000388   -0.000277
   -3    0   -1   14   20    0.000394    0.001036
   -3    0   -1   15   20   -0.000193    0.001756
   -3    0   -1   16   20   -0.000894   -0.000241
   -3    0   -1   17   20    0.000866    0.000443
   -3    0   -1   18   20    0.000358    0.001026
   -3    0   -1   19   20    0.002155   -0.001375
   -3    0   -1   20   20   -0.000476   -0.000092
   -3    0   -1   21   20    0.003946    0.000789
   -3    0   -1   22   20    0.000549    0.001435
   -3    0   -1    1   21    0.003512   -0.000262
   -3    0   -1    2   21    0.000409    0.000087
   -3    0   -1    3   21   -0.007123    0.010087
   -3    0   -1    4   21    0.004477   -0.008201
   -3    0   -1    5   21    0.005114    0.001212
   -3    0   -1    6   21    0.002480    0.008359
   -3    0   -1    7   21    0.003159   -0.005337
   -3    0   -1    8   21    0.001227   -0.002232
   -3    0   -1    9   21    0.005110   -0.008018
   -3    0   -1   10   21   -0.006977   -0.001637
   -3    0   -1   11   21   -0.011739    0.000024
   -3    0   -1   12   21   -0.001985    0.001450
   -3    0   -1   13   21    0.000638    0.008066
   -3    0   -1   14   21   -0.001136   -0.000527
   -3    0   -1   15   21    0.014703    0.002447
   -3    0   -1   16   21    0.000448   -0.000292
   -3    0   -1   17   21   -0.001631    0.000288
   -3    0   -1   18   21   -0.001343    0.001988
   -3    0   -1   19   21   -0.004081    0.002549
   -3    0   -1   20   21    0.001002    0.000073
   -3    0   -1   21   21   -0.010893    0.017700
   -3    0   -1   22   21    0.002254   -0.008200
   -3    0   -1    1   22   -0.002457    0.000377
   -3    0   -1    2   22   -0.000046    0.001789
   -3    0   -1    3   22    0.001357   -0.000197
   -3    0   -1    4   22    0.000057   -0.000987
   -3    0   -1    5   22    0.000835    0.003820
   -3    0   -1    6   22    0.002478    0.002313
   -3    0   -1    7   22    0.003192   -0.001861
   -3    0   -1    8   22   -0.000561    0.000491
   -3    0   -1    9   22    0.000441    0.002665
   -3    0   -1   10   22   -0.001750   -0.000598
   -3    0   -1   11   22   -0.000910   -0.000979
   -3    0   -1   12   22    0.000564   -0.000844
   -3    0   -1   13   22    0.000268   -0.002038
   -3    0   -1   14   22    0.000416    0.001546
   -3    0   -1   15   22    0.002596    0.002893
   -3    0   -1   16   22   -0.001338    0.000391
   -3    0   -1   17   22    0.000014   -0.001154
   -3    0   -1   18   22    0.006375   -0.012373
   -3    0   -1   19   22   -0.000398   -0.000779
   -3    0   -1   20   22   -0.000147   -0.000654
   -3    0   -1   21   22    0.007277   -0.010061
   -3    0   -1   22   22    0.007740    0.002260
   -3    0    0    1    1   -0.007081   -0.000000
   -3    0    0    2    1   -0.001410   -0.000789
   -3    0    0    3    1    0.007362   -0.000433
   -3    0    0    4    1   -0.000420   -0.001079
   -3    0    0    5    1   -0.000683    0.000868
   -3    0    0    6    1    0.005829   -0.002043
   -3    0    0    7    1   -0.000596    0.000527
   -3    0    0    8    1   -0.000408    0.001319
   -3    0    0    9    1   -0.001111    0.001213
   -3    0    0   10    1    0.001524    0.000890
   -3    0    0   11    1    0.005564    0.005944
   -3    0    0   12    1   -0.000521   -0.003476
   -3    0    0   13    1    0.005966   -0.008222
   -3    0    0   14    1    0.000399    0.000487
   -3    0    0   15    1   -0.004594   -0.005382
   -3    0    0   16    1   -0.000429   -0.000628
   -3    0    0   17    1    0.002714    0.004639
   -3    0    0   18    1    0.014243    0.005150
   -3    0    0   19    1    0.001734   -0.000015
   -3    0    0   20    1   -0.000058   -0.000216
   -3    0    0   21    1   -0.002513    0.012223
   -3    0    0   22    1   -0.002516    0.003186
   -3    0    0    1    2   -0.001410    0.000789
   -3    0    0    2    2   -0.001033   -0.000000
   -3    0    0    3    2   -0.000112   -0.000401
   -3    0    0    4    2    0.001450    0.000368
   -3    0    0    5    2    0.000114   -0.000020
   -3    0    0    6    2    0.000588   -0.000504
   -3    0    0    7    2   -0.001780    0.000213
   -3    0    0    8    2   -0.000164   -0.001083
   -3    0    0    9    2   -0.000880   -0.000340
   -3    0    0   10    2   -0.000960   -0.001120
   -3    0    0   11    2    0.000196    0.000358
   -3    0    0   12    2    0.003071   -0.002926
   -3    0    0   13    2    0.000024    0.001953
   -3    0    0   14    2    0.000706   -0.001046
   -3    0    0   15    2   -0.000944   -0.000333
   -3    0    0   16    2   -0.002504    0.000377
   -3    0    0   17    2    0.000770    0.000647
   -3    0    0   18    2    0.001042    0.000604
   -3    0    0   19    2   -0.003051   -0.000458
   -3    0    0   20    2   -0.000078    0.000567
   -3    0    0   21    2    0.000501    0.000965
   -3    0    0   22    2   -0.000207   -0.001547
   -3    0    0    1    3    0.007362    0.000433
   -3    0    0    2    3   -0.000112    0.000401
   -3    0    0    3    3   -0.010295    0.000000
   -3    0    0    4    3    0.000644   -0.000769
   -3    0    0    5    3    0.000789    0.000140
   -3    0    0    6    3   -0.003520    0.002247
   -3    0    0    7    3   -0.001269   -0.000063
   -3    0    0    8    3   -0.000179   -0.000445
   -3    0    0    9    3    0.006595   -0.002284
   -3    0    0   10    3    0.000977    0.000776
   -3    0    0   11    3   -0.005029   -0.003923
   -3    0    0   12    3    0.000803    0.000115
   -3    0    0   13    3   -0.005126    0.003870
   -3    0    0   14    3   -0.000669   -0.001368
   -3    0    0   15    3    0.002227    0.004160
   -3    0    0   16    3   -0.000074    0.000418
   -3    0    0   17    3   -0.002372   -0.005098
   -3    0    0   18    3   -0.013367    0.003179
   -3    0    0   19    3   -0.002031   -0.001154
   -3    0    0   20    3    0.000079    0.000934
   -3    0    0   21    3    0.007115   -0.006041
   -3    0    0   22    3   -0.000904   -0.002057
   -3    0    0    1    4   -0.000420    0.001079
   -3    0    0    2    4    0.001450   -0.000368
   -3    0    0    3    4    0.000644    0.000769
   -3    0    0    4    4    0.003569   -0.000000
   -3    0    0    5    4    0.002613    0.001966
   -3    0    0    6    4   -0.000666   -0.000234
   -3    0    0    7    4    0.003366    0.001879
   -3    0    0    8    4    0.001021    0.002695
   -3    0    0    9    4    0.000605    0.001511
   -3    0    0   10    4   -0.002414    0.002131
   -3    0    0   11    4    0.001100   -0.001067
   -3    0    0   12    4   -0.003850    0.000081
   -3    0    0   13    4    0.000029   -0.002275
   -3    0    0   14    4    0.000685   -0.001132
   -3    0    0   15    4   -0.001311   -0.000219
   -3    0    0   16    4   -0.000701    0.000834
   -3    0    0   17    4    0.000162    0.001591
   -3    0    0   18    4   -0.005403   -0.004937
   -3    0    0   19    4   -0.002701   -0.000578
   -3    0    0   20    4    0.001477    0.000304
   -3    0    0   21    4   -0.007094   -0.001125
   -3    0    0   22    4    0.002115    0.001078
   -3    0    0    1    5   -0.000683   -0.000868
   -3    0    0    2    5    0.000114    0.000020
   -3    0    0    3    5    0.000789   -0.000140
   -3    0    0    4    5    0.002613   -0.001966
   -3    0    0    5    5    0.001862   -0.000000
   -3    0    0    6    5    0.001239    0.000734
   -3    0    0    7    5   -0.001277    0.000550
   -3    0    0    8    5   -0.000743   -0.001580
   -3    0    0    9    5   -0.000061   -0.000300
   -3    0    0   10    5    0.001575    0.006217
   -3    0    0   11    5   -0.000440    0.000090
   -3    0    0   12    5    0.005987   -0.000764
   -3    0    0   13    5    0.000111   -0.000696
   -3    0    0   14    5   -0.001683   -0.000390
   -3    0    0   15    5    0.000842   -0.001714
   -3    0    0   16    5    0.000943   -0.000198
   -3    0    0   17    5   -0.001488    0.000294
   -3    0    0   18    5    0.002319    0.008562
   -3    0    0   19    5   -0.000725    0.004267
   -3    0    0   20    5    0.001467   -0.001004
   -3    0    0   21    5   -0.006561    0.005198
   -3    0    0   22    5    0.002340   -0.002460
   -3    0    0    1    6    0.005829    0.002043
   -3    0    0    2    6    0.000588    0.000504
   -3    0    0    3    6   -0.003520   -0.002247
   -3    0    0    4    6   -0.000666    0.000234
   -3    0    0    5    6    0.001239   -0.000734
   -3    0    0    6    6   -0.008186    0.000000
   -3    0    0    7    6   -0.000231   -0.000035
   -3    0    0    8    6    0.001965   -0.002059
   -3    0    0    9    6    0.001830   -0.000124
   -3    0    0   10    6   -0.000274    0.001969
   -3    0    0   11    6    0.000012   -0.005644
   -3    0    0   12    6    0.000300    0.000979
   -3    0    0   13    6    0.000070    0.001041
   -3    0    0   14    6   -0.000179   -0.000585
   -3    0    0   15    6   -0.001221    0.000712
   -3    0    0   16    6   -0.000310   -0.000074
   -3    0    0   17    6    0.000403   -0.004669
   -3    0    0   18    6   -0.010814   -0.004085
   -3    0    0   19    6   -0.000236   -0.001199
   -3    0    0   20    6   -0.000678    0.000776
   -3    0    0   21    6    0.007857   -0.001281
   -3    0    0   22    6    0.001159   -0.001472
   -3    0    0    1    7   -0.000596   -0.000527
   -3    0    0    2    7   -0.001780   -0.000213
   -3    0    0    3    7   -0.001269    0.000063
   -3    0    0    4    7    0.003366   -0.001879
   -3    0    0    5    7   -0.001277   -0.000550
   -3    0    0    6    7   -0.000231    0.000035
   -3    0    0    7    7   -0.000213    0.000000
   -3    0    0    8    7    0.001197   -0.003288
   -3    0    0    9    7    0.000580    0.000166
   -3    0    0   10    7   -0.003765   -0.005167
[...]
    3    0    3    5    4    0.002325    0.000909
    3    0    3    6    4    0.002030    0.001121
    3    0    3    7    4    0.002457    0.001844
    3    0    3    8    4    0.000278    0.002926
    3    0    3    9    4    0.000043   -0.000756
    3    0    3   10    4   -0.003665   -0.003926
    3    0    3   11    4    0.000160    0.000213
    3    0    3   12    4    0.000747    0.001395
    3    0    3   13    4    0.000053   -0.000969
    3    0    3   14    4   -0.000226   -0.000945
    3    0    3   15    4    0.000562    0.000675
    3    0    3   16    4    0.000287    0.000360
    3    0    3   17    4   -0.000011    0.002101
    3    0    3   18    4   -0.006653   -0.003645
    3    0    3   19    4   -0.002220    0.000129
    3    0    3   20    4   -0.000111    0.000403
    3    0    3   21    4   -0.005628    0.002341
    3    0    3   22    4    0.002459    0.002215
    3    0    3    1    5    0.000135    0.001102
    3    0    3    2    5    0.000391    0.001519
    3    0    3    3    5   -0.000514    0.001091
    3    0    3    4    5    0.002325   -0.000909
    3    0    3    5    5    0.007919    0.000000
    3    0    3    6    5    0.000982   -0.001290
    3    0    3    7    5   -0.002012   -0.003312
    3    0    3    8    5    0.004263   -0.005006
    3    0    3    9    5   -0.000025    0.001527
    3    0    3   10    5   -0.008091    0.019180
    3    0    3   11    5   -0.001125    0.000141
    3    0    3   12    5    0.003203   -0.003801
    3    0    3   13    5    0.001332   -0.000318
    3    0    3   14    5    0.003374   -0.001197
    3    0    3   15    5    0.001068   -0.001633
    3    0    3   16    5    0.000474   -0.000743
    3    0    3   17    5    0.000047    0.000884
    3    0    3   18    5    0.000210    0.008691
    3    0    3   19    5    0.000021    0.003690
    3    0    3   20    5   -0.001423    0.002114
    3    0    3   21    5   -0.009123    0.004519
    3    0    3   22    5    0.001835   -0.001066
    3    0    3    1    6    0.004126   -0.001847
    3    0    3    2    6    0.000273   -0.000557
    3    0    3    3    6   -0.004002   -0.002875
    3    0    3    4    6    0.002030   -0.001121
    3    0    3    5    6    0.000982    0.001290
    3    0    3    6    6   -0.006536   -0.000000
    3    0    3    7    6   -0.000169   -0.000257
    3    0    3    8    6    0.002214    0.000046
    3    0    3    9    6    0.001038   -0.001819
    3    0    3   10    6   -0.000963   -0.001317
    3    0    3   11    6    0.000752   -0.003587
    3    0    3   12    6    0.003024   -0.001115
    3    0    3   13    6   -0.002409   -0.000247
    3    0    3   14    6    0.002184    0.000166
    3    0    3   15    6   -0.003693    0.005018
    3    0    3   16    6    0.001919    0.000751
    3    0    3   17    6    0.002805   -0.005465
    3    0    3   18    6   -0.012112   -0.001217
    3    0    3   19    6   -0.000480   -0.000926
    3    0    3   20    6   -0.001414   -0.000971
    3    0    3   21    6    0.007451   -0.003031
    3    0    3   22    6    0.002028    0.003918
    3    0    3    1    7   -0.000310   -0.000059
    3    0    3    2    7   -0.008518    0.001494
    3    0    3    3    7    0.000313   -0.000132
    3    0    3    4    7    0.002457   -0.001844
    3    0    3    5    7   -0.002012    0.003312
    3    0    3    6    7   -0.000169    0.000257
    3    0    3    7    7    0.000347    0.000000
    3    0    3    8    7    0.012557    0.013306
    3    0    3    9    7    0.000281    0.000364
    3    0    3   10    7   -0.004585   -0.004948
    3    0    3   11    7    0.000391   -0.000549
    3    0    3   12    7    0.001440   -0.005628
    3    0    3   13    7   -0.000154   -0.000117
    3    0    3   14    7    0.004249   -0.001359
    3    0    3   15    7   -0.000106    0.001982
    3    0    3   16    7   -0.004023    0.000893
    3    0    3   17    7   -0.001138   -0.000824
    3    0    3   18    7   -0.006369    0.000473
    3    0    3   19    7   -0.001735   -0.002727
    3    0    3   20    7   -0.001458   -0.000409
    3    0    3   21    7   -0.002662    0.000302
    3    0    3   22    7    0.001999    0.000033
    3    0    3    1    8   -0.000766   -0.001376
    3    0    3    2    8    0.000396    0.000268
    3    0    3    3    8    0.001487    0.000609
    3    0    3    4    8    0.000278   -0.002926
    3    0    3    5    8    0.004263    0.005006
    3    0    3    6    8    0.002214   -0.000046
    3    0    3    7    8    0.012557   -0.013306
    3    0    3    8    8    0.000978   -0.000000
    3    0    3    9    8   -0.000851   -0.000480
    3    0    3   10    8   -0.003707    0.001871
    3    0    3   11    8   -0.000203    0.000174
    3    0    3   12    8   -0.007123   -0.001332
    3    0    3   13    8   -0.000849   -0.001109
    3    0    3   14    8    0.003189    0.003974
    3    0    3   15    8   -0.000254    0.000844
    3    0    3   16    8    0.000178   -0.001689
    3    0    3   17    8    0.000185    0.002231
    3    0    3   18    8   -0.001021    0.007248
    3    0    3   19    8   -0.002981   -0.001040
    3    0    3   20    8   -0.003178    0.002790
    3    0    3   21    8   -0.004861    0.002128
    3    0    3   22    8    0.001809    0.000961
    3    0    3    1    9   -0.007050   -0.002851
    3    0    3    2    9   -0.001321    0.001049
    3    0    3    3    9    0.004588    0.002723
    3    0    3    4    9    0.000043    0.000756
    3    0    3    5    9   -0.000025   -0.001527
    3    0    3    6    9    0.001038    0.001819
    3    0    3    7    9    0.000281   -0.000364
    3    0    3    8    9   -0.000851    0.000480
    3    0    3    9    9   -0.004485    0.000000
    3    0    3   10    9   -0.000520    0.000568
    3    0    3   11    9    0.003668    0.003794
    3    0    3   12    9    0.001919    0.000052
    3    0    3   13    9    0.007538   -0.002504
    3    0    3   14    9    0.001505   -0.000921
    3    0    3   15    9    0.000669   -0.005790
    3    0    3   16    9   -0.001607    0.000908
    3    0    3   17    9    0.000118    0.003076
    3    0    3   18    9    0.013244   -0.003238
    3    0    3   19    9   -0.003014    0.000441
    3    0    3   20    9    0.000395    0.000166
    3    0    3   21    9   -0.007134    0.005632
    3    0    3   22    9    0.002491   -0.000694
    3    0    3    1   10    0.001428   -0.002293
    3    0    3    2   10   -0.001855    0.003747
    3    0    3    3   10    0.001221    0.000392
    3    0    3    4   10   -0.003665    0.003926
    3    0    3    5   10   -0.008091   -0.019180
    3    0    3    6   10   -0.000963    0.001317
    3    0    3    7   10   -0.004585    0.004948
    3    0    3    8   10   -0.003707   -0.001871
    3    0    3    9   10   -0.000520   -0.000568
    3    0    3   10   10    0.008269   -0.000000
    3    0    3   11   10    0.001959    0.001067
    3    0    3   12   10    0.002828   -0.003891
    3    0    3   13   10   -0.000819   -0.000949
    3    0    3   14   10   -0.000501    0.001425
    3    0    3   15   10   -0.003626   -0.002141
    3    0    3   16   10   -0.003265    0.006843
    3    0    3   17   10    0.000068   -0.000428
    3    0    3   18   10    0.006340   -0.001266
    3    0    3   19   10    0.000360   -0.001773
    3    0    3   20   10   -0.003648    0.002284
    3    0    3   21   10    0.005723   -0.001292
    3    0    3   22   10   -0.001198   -0.001057
    3    0    3    1   11    0.005784   -0.004333
    3    0    3    2   11    0.000193    0.000254
    3    0    3    3   11   -0.004656    0.003452
    3    0    3    4   11    0.000160   -0.000213
    3    0    3    5   11   -0.001125   -0.000141
    3    0    3    6   11    0.000752    0.003587
    3    0    3    7   11    0.000391    0.000549
    3    0    3    8   11   -0.000203   -0.000174
    3    0    3    9   11    0.003668   -0.003794
    3    0    3   10   11    0.001959   -0.001067
    3    0    3   11   11   -0.010528    0.000000
    3    0    3   12   11   -0.002230    0.001414
    3    0    3   13   11   -0.002196    0.005771
    3    0    3   14   11   -0.000101   -0.000226
    3    0    3   15   11    0.005348    0.005761
    3    0    3   16   11   -0.000232    0.001474
    3    0    3   17   11   -0.004901   -0.002506
    3    0    3   18   11   -0.005233    0.013354
    3    0    3   19   11   -0.001228   -0.000155
    3    0    3   20   11    0.000036   -0.000392
    3    0    3   21   11   -0.001355   -0.007950
    3    0    3   22   11    0.000538    0.000960
    3    0    3    1   12    0.000274    0.000893
    3    0    3    2   12    0.000494   -0.000252
    3    0    3    3   12    0.000227    0.001330
    3    0    3    4   12    0.000747   -0.001395
    3    0    3    5   12    0.003203    0.003801
    3    0    3    6   12    0.003024    0.001115
    3    0    3    7   12    0.001440    0.005628
    3    0    3    8   12   -0.007123    0.001332
    3    0    3    9   12    0.001919   -0.000052
    3    0    3   10   12    0.002828    0.003891
    3    0    3   11   12   -0.002230   -0.001414
    3    0    3   12   12   -0.000329   -0.000000
    3    0    3   13   12   -0.000176   -0.001919
    3    0    3   14   12   -0.002594   -0.000811
    3    0    3   15   12    0.000833   -0.001927
    3    0    3   16   12   -0.001171   -0.000466
    3    0    3   17   12    0.000107    0.000828
    3    0    3   18   12    0.001775   -0.000476
    3    0    3   19   12   -0.002149    0.001968
    3    0    3   20   12    0.001271    0.000489
    3    0    3   21   12   -0.002125    0.001973
    3    0    3   22   12   -0.001243   -0.000161
    3    0    3    1   13    0.005865    0.007174
    3    0    3    2   13    0.000563   -0.001149
    3    0    3    3   13   -0.005119   -0.004223
    3    0    3    4   13    0.000053    0.000969
    3    0    3    5   13    0.001332    0.000318
    3    0    3    6   13   -0.002409    0.000247
    3    0    3    7   13   -0.000154    0.000117
    3    0    3    8   13   -0.000849    0.001109
    3    0    3    9   13    0.007538    0.002504
    3    0    3   10   13   -0.000819    0.000949
    3    0    3   11   13   -0.002196   -0.005771
    3    0    3   12   13   -0.000176    0.001919
    3    0    3   13   13   -0.001172    0.000000
    3    0    3   14   13    0.000207    0.000612
    3    0    3   15   13    0.002553   -0.000049
    3    0    3   16   13   -0.003619    0.000011
    3    0    3   17   13   -0.001750   -0.003581
    3    0    3   18   13   -0.013584   -0.014859
    3    0    3   19   13   -0.001614    0.002118
    3    0    3   20   13    0.001781   -0.000764
    3    0    3   21   13    0.005795    0.004768
    3    0    3   22   13    0.001998   -0.005723
    3    0    3    1   14    0.001050    0.002333
    3    0    3    2   14    0.001735    0.002452
    3    0    3    3   14    0.001081   -0.000946
    3    0    3    4   14   -0.000226    0.000945
    3    0    3    5   14    0.003374    0.001197
    3    0    3    6   14    0.002184   -0.000166
    3    0    3    7   14    0.004249    0.001359
    3    0    3    8   14    0.003189   -0.003974
    3    0    3    9   14    0.001505    0.000921
    3    0    3   10   14   -0.000501   -0.001425
    3    0    3   11   14   -0.000101    0.000226
    3    0    3   12   14   -0.002594    0.000811
    3    0    3   13   14    0.000207   -0.000612
    3    0    3   14   14   -0.005690    0.000000
    3    0    3   15   14    0.000446   -0.001082
    3    0    3   16   14   -0.001104   -0.003315
    3    0    3   17   14   -0.001540   -0.000212
    3    0    3   18   14   -0.000959    0.000451
    3    0    3   19   14   -0.002542    0.001328
    3    0    3   20   14    0.000927   -0.003182
    3    0    3   21   14   -0.000481   -0.000627
    3    0    3   22   14   -0.000280    0.000660
    3    0    3    1   15   -0.003146    0.005400
    3    0    3    2   15   -0.000571   -0.001056
    3    0    3    3   15    0.003079   -0.004758
    3    0    3    4   15    0.000562   -0.000675
    3    0    3    5   15    0.001068    0.001633
    3    0    3    6   15   -0.003693   -0.005018
    3    0    3    7   15   -0.000106   -0.001982
    3    0    3    8   15   -0.000254   -0.000844
    3    0    3    9   15    0.000669    0.005790
    3    0    3   10   15   -0.003626    0.002141
    3    0    3   11   15    0.005348   -0.005761
    3    0    3   12   15    0.000833    0.001927
    3    0    3   13   15    0.002553    0.000049
    3    0    3   14   15    0.000446    0.001082
    3    0    3   15   15   -0.001991   -0.000000
    3    0    3   16   15   -0.000302   -0.001097
    3    0    3   17   15    0.003824    0.000071
    3    0    3   18   15    0.002506   -0.013139
    3    0    3   19   15   -0.000028    0.000897
    3    0    3   20   15    0.000068   -0.000151
    3    0    3   21   15   -0.004161    0.011590
    3    0    3   22   15    0.007275   -0.001054
    3    0    3    1   16    0.001233   -0.000753
    3    0    3    2   16   -0.002663   -0.000163
    3    0    3    3   16   -0.000525    0.000295
    3    0    3    4   16    0.000287   -0.000360
    3    0    3    5   16    0.000474    0.000743
    3    0    3    6   16    0.001919   -0.000751
    3    0    3    7   16   -0.004023   -0.000893
    3    0    3    8   16    0.000178    0.001689
    3    0    3    9   16   -0.001607   -0.000908
    3    0    3   10   16   -0.003265   -0.006843
    3    0    3   11   16   -0.000232   -0.001474
    3    0    3   12   16   -0.001171    0.000466
    3    0    3   13   16   -0.003619   -0.000011
    3    0    3   14   16   -0.001104    0.003315
    3    0    3   15   16   -0.000302    0.001097
    3    0    3   16   16   -0.002235    0.000000
    3    0    3   17   16   -0.000769    0.000528
    3    0    3   18   16   -0.002188    0.000206
    3    0    3   19   16    0.000012   -0.000775
    3    0    3   20   16   -0.000336   -0.003503
    3    0    3   21   16    0.004640   -0.002777
    3    0    3   22   16    0.001551    0.001665
    3    0    3    1   17    0.003008   -0.004359
    3    0    3    2   17    0.000862    0.000184
    3    0    3    3   17   -0.002622    0.005893
    3    0    3    4   17   -0.000011   -0.002101
    3    0    3    5   17    0.000047   -0.000884
    3    0    3    6   17    0.002805    0.005465
    3    0    3    7   17   -0.001138    0.000824
    3    0    3    8   17    0.000185   -0.002231
    3    0    3    9   17    0.000118   -0.003076
    3    0    3   10   17    0.000068    0.000428
    3    0    3   11   17   -0.004901    0.002506
    3    0    3   12   17    0.000107   -0.000828
    3    0    3   13   17   -0.001750    0.003581
    3    0    3   14   17   -0.001540    0.000212
    3    0    3   15   17    0.003824   -0.000071
    3    0    3   16   17   -0.000769   -0.000528
    3    0    3   17   17   -0.005299   -0.000000
    3    0    3   18   17   -0.002116    0.000915
    3    0    3   19   17   -0.000649    0.000143
    3    0    3   20   17    0.000341   -0.001101
    3    0    3   21   17   -0.009503    0.000568
    3    0    3   22   17   -0.000338   -0.000711
    3    0    3    1   18    0.016476   -0.003644
    3    0    3    2   18   -0.001325   -0.001653
    3    0    3    3   18   -0.011950   -0.004075
    3    0    3    4   18   -0.006653    0.003645
    3    0    3    5   18    0.000210   -0.008691
    3    0    3    6   18   -0.012112    0.001217
    3    0    3    7   18   -0.006369   -0.000473
    3    0    3    8   18   -0.001021   -0.007248
    3    0    3    9   18    0.013244    0.003238
    3    0    3   10   18    0.006340    0.001266
    3    0    3   11   18   -0.005233   -0.013354
    3    0    3   12   18    0.001775    0.000476
    3    0    3   13   18   -0.013584    0.014859
    3    0    3   14   18   -0.000959   -0.000451
    3    0    3   15   18    0.002506    0.013139
    3    0    3   16   18   -0.002188   -0.000206
    3    0    3   17   18   -0.002116   -0.000915
    3    0    3   18   18    0.016959   -0.000000
    3    0    3   19   18   -0.001943   -0.003900
    3    0    3   20   18   -0.000530   -0.000901
    3    0    3   21   18   -0.010338   -0.006582
    3    0    3   22   18    0.009263   -0.005438
    3    0    3    1   19    0.001199   -0.000828
    3    0    3    2   19   -0.002127   -0.000002
    3    0    3    3   19   -0.000900    0.001162
    3    0    3    4   19   -0.002220   -0.000129
    3    0    3    5   19    0.000021   -0.003690
    3    0    3    6   19   -0.000480    0.000926
    3    0    3    7   19   -0.001735    0.002727
    3    0    3    8   19   -0.002981    0.001040
    3    0    3    9   19   -0.003014   -0.000441
    3    0    3   10   19    0.000360    0.001773
    3    0    3   11   19   -0.001228    0.000155
    3    0    3   12   19   -0.002149   -0.001968
    3    0    3   13   19   -0.001614   -0.002118
    3    0    3   14   19   -0.002542   -0.001328
    3    0    3   15   19   -0.000028   -0.000897
    3    0    3   16   19    0.000012    0.000775
    3    0    3   17   19   -0.000649   -0.000143
    3    0    3   18   19   -0.001943    0.003900
    3    0    3   19   19   -0.000950   -0.000000
    3    0    3   20   19    0.001376    0.001540
    3    0    3   21   19    0.001698   -0.004402
    3    0    3   22   19   -0.001543   -0.001034
    3    0    3    1   20    0.000023   -0.000609
    3    0    3    2   20    0.000548   -0.001609
    3    0    3    3   20   -0.000387    0.001405
    3    0    3    4   20   -0.000111   -0.000403
    3    0    3    5   20   -0.001423   -0.002114
    3    0    3    6   20   -0.001414    0.000971
    3    0    3    7   20   -0.001458    0.000409
    3    0    3    8   20   -0.003178   -0.002790
    3    0    3    9   20    0.000395   -0.000166
    3    0    3   10   20   -0.003648   -0.002284
    3    0    3   11   20    0.000036    0.000392
    3    0    3   12   20    0.001271   -0.000489
    3    0    3   13   20    0.001781    0.000764
    3    0    3   14   20    0.000927    0.003182
    3    0    3   15   20    0.000068    0.000151
    3    0    3   16   20   -0.000336    0.003503
    3    0    3   17   20    0.000341    0.001101
    3    0    3   18   20   -0.000530    0.000901
    3    0    3   19   20    0.001376   -0.001540
    3    0    3   20   20   -0.003020   -0.000000
    3    0    3   21   20    0.001698   -0.000605
    3    0    3   22   20   -0.000091    0.000666
    3    0    3    1   21    0.001195   -0.005177
    3    0    3    2   21   -0.001729   -0.001420
    3    0    3    3   21    0.007831    0.005911
    3    0    3    4   21   -0.005628   -0.002341
    3    0    3    5   21   -0.009123   -0.004519
    3    0    3    6   21    0.007451    0.003031
    3    0    3    7   21   -0.002662   -0.000302
    3    0    3    8   21   -0.004861   -0.002128
    3    0    3    9   21   -0.007134   -0.005632
    3    0    3   10   21    0.005723    0.001292
    3    0    3   11   21   -0.001355    0.007950
    3    0    3   12   21   -0.002125   -0.001973
    3    0    3   13   21    0.005795   -0.004768
    3    0    3   14   21   -0.000481    0.000627
    3    0    3   15   21   -0.004161   -0.011590
    3    0    3   16   21    0.004640    0.002777
    3    0    3   17   21   -0.009503   -0.000568
    3    0    3   18   21   -0.010338    0.006582
    3    0    3   19   21    0.001698    0.004402
    3    0    3   20   21    0.001698    0.000605
    3    0    3   21   21    0.005752    0.000000
    3    0    3   22   21   -0.008559   -0.002386
    3    0    3    1   22   -0.003119    0.000753
    3    0    3    2   22    0.000566    0.000986
    3    0    3    3   22    0.001286    0.000313
    3    0    3    4   22    0.002459   -0.002215
    3    0    3    5   22    0.001835    0.001066
    3    0    3    6   22    0.002028   -0.003918
    3    0    3    7   22    0.001999   -0.000033
